      42
 i =        0, time =        0.000, E =      -138.0791730111
  C         9.1943723700       -1.3286617300        4.8192849300
  C         8.3847594000        0.7927639200        5.8424350400
  C         9.7300754400        1.2972815100        5.9374068800
  C        10.7581613800        0.5648626400        5.2434085400
  C         9.4222203500       -2.4574625400        5.7726135600
  C         8.7280883000       -1.5955346700        3.4321318400
  C        10.0847699800        2.5067441000        6.5170180700
  C         9.2005996000        3.4478262700        7.2196495300
  C         9.7244726800        4.1768848500        8.3107386200
  C        10.8330127900        3.5201709200        8.7456440100
  C        10.9949618600        2.1535411300        8.3610601600
  C        13.3456530100        2.2912316600        7.6325892000
  C        14.6545998200        2.1559830300        8.4004369400
  C        12.4038055200        0.0136565700        8.1946511800
  C        11.3641263600       -0.6962721700        9.0633313300
  N        12.2418275400        1.5504573400        8.3672187700
  O         7.2760449100        1.2901649500        6.0875822800
  O        11.9391043300        0.8785878000        5.1356924200
  O        10.4567500800       -0.5906316100        4.5803925900
  O         8.1604549000       -0.4579502500        5.3209404100
  O         7.8919822900        3.5943047100        6.8586068000
  H         7.3885995200        2.7247235400        6.5414473300
  H        11.0983738900        2.9953672900        6.2724474300
  H         9.3610730200        5.0734078000        8.7643713200
  H        11.5774538400        3.9641784900        9.5285252600
  H        10.1504966500        1.3976998200        8.5430287400
  H        11.7170684700       -1.3867742300        9.8500216800
  H        10.7776409300       -0.0448782100        9.7026342000
  H        12.1048150800       -0.1978074900        7.0527230600
  H        13.4378272200       -0.2500645900        8.5184293200
  H        13.4007942700        1.7827918900        6.6518233700
  H        14.9388946100        3.0623909800        8.9475159800
  H        13.1152142600        3.3044188600        7.2875180200
  H        15.5529664400        1.8445167000        7.7688442400
  H        14.6176998300        1.4036159300        9.1539544100
  H         7.5790582100       -1.6213536200        3.4070579300
  H         8.9090254500       -0.7841382000        2.6736999900
  H         9.0746326900       -2.5630613900        3.0149546000
  H         9.3743279100       -2.1154176800        6.8021451200
  H        10.4705811900       -2.8269850900        5.7117149000
  H         8.6945619500       -3.2917662900        5.6150718900
  H        10.6158390300       -1.2835369900        8.4266335000
      42
 i =       20, time =       10.000, E =      -138.0840320942
  C         9.2332603694       -1.3271609418        4.7967354297
  C         8.3903908808        0.7751838545        5.8015910425
  C         9.7419239345        1.2028691236        5.9402277508
  C        10.8267397648        0.5562917399        5.2598870009
  C         9.4468570905       -2.4847546616        5.8050380962
  C         8.6748088561       -1.6298212456        3.4178736852
  C         9.9989841134        2.5112490552        6.5507856789
  C         9.1134595848        3.4622617393        7.1334120092
  C         9.7232107030        4.2440290751        8.2490683189
  C        10.8386642648        3.5784687872        8.7596078715
  C        11.0141596174        2.1256778277        8.4107349160
  C        13.3551170394        2.2610728499        7.5993677562
  C        14.6494115737        2.1548854007        8.4342716687
  C        12.3489273478        0.1038723488        8.2067284685
  C        11.4027132249       -0.6856187941        9.0830584139
  N        12.2665090213        1.5395582242        8.3780356948
  O         7.2768900292        1.3103407263        6.0996381172
  O        11.9852450771        0.8804093221        5.1196592521
  O        10.4146353348       -0.5972567454        4.5905908692
  O         8.1886351946       -0.4938100813        5.3925405362
  O         7.8741644943        3.6154873470        6.8617761301
  H         7.4562181532        2.6378442036        6.2664189480
  H        11.0030479569        2.9715237175        6.1044349802
  H         9.2195130173        5.1398390192        8.5466780486
  H        11.5920933443        4.0362317149        9.3498583396
  H        10.1598323618        1.4695421124        8.6317593782
  H        11.9755578346       -1.3801199554        9.7298652119
  H        10.7240947498       -0.0805322346        9.6201587806
  H        12.2816464971       -0.2593677253        7.1322905350
  H        13.4306985168       -0.1445888768        8.4582312926
  H        13.4721516955        1.7514208073        6.5642815229
  H        14.9575860649        3.0053052679        8.9453506274
  H        13.0453496901        3.3346214032        7.4356379747
  H        15.4637610639        1.9993062910        7.7643536293
  H        14.5112541459        1.3408187774        9.1155728013
  H         7.6080668540       -1.6231766852        3.4055680757
  H         8.9926504709       -0.7380847755        2.8525984541
  H         9.1012601500       -2.5333951100        2.9659373142
  H         9.1827267107       -2.1936111604        6.8182416641
  H        10.4443746836       -2.8838976282        5.5724221959
  H         8.7801247726       -3.3007745769        5.5886204222
  H        10.7452913977       -1.2865777716        8.4548233745
      42
 i =       40, time =       20.000, E =      -138.0736806334
  C         9.2321749971       -1.3608335825        4.8204484799
  C         8.4089034001        0.7393911881        5.8024946841
  C         9.6991696722        1.2300282088        5.9377452741
  C        10.8366634164        0.5850605690        5.2957320066
  C         9.4585852843       -2.4961936956        5.7572304467
  C         8.6535090675       -1.6365424099        3.4002126910
  C         9.9879317718        2.4714786171        6.5924179569
  C         9.0777508518        3.4602427799        7.0974450303
  C         9.7624857938        4.2050607237        8.1409476057
  C        10.8014817619        3.6149986232        8.7410728571
  C        10.9943665264        2.2071891320        8.4456057903
  C        13.3676690597        2.2402801720        7.6192398773
  C        14.6402571792        2.1546124550        8.4250275753
  C        12.3462342890        0.1159249276        8.2133019758
  C        11.4169873166       -0.7083992604        9.0904827242
  N        12.2542183117        1.6254817922        8.3407339444
  O         7.3175901463        1.3546143458        6.1029278349
  O        12.0156415247        0.8640253636        5.1110431062
  O        10.4257320452       -0.6276823887        4.5841089524
  O         8.1917899146       -0.5635795921        5.4534501151
  O         7.8306625739        3.6356343019        6.8670691823
  H         7.3548085963        2.6253114009        6.1279645590
  H        10.9369009882        2.9172769898        6.1695977712
  H         9.4226735966        5.2123405008        8.3840212269
  H        11.4712308146        4.1180082942        9.2668324140
  H        10.1881301030        1.5931401572        8.7905635448
  H        12.0721183978       -1.2995024806        9.7436407974
  H        10.7943833264       -0.1339238637        9.7694230352
  H        12.3252838184       -0.1359633019        7.1979672748
  H        13.3904898628       -0.2096951457        8.4534630734
  H        13.5436682993        1.8444036191        6.5322113244
  H        14.6852192024        3.0240330837        9.0123179676
  H        13.0976857760        3.3577698959        7.5418689104
  H        15.4381404572        1.9716042282        7.8169549969
  H        14.7282043549        1.3267732856        9.1596010843
  H         7.6293005332       -1.7746250992        3.4421093792
  H         8.9514263981       -0.9081846648        2.6811800918
  H         9.0594674837       -2.5304845834        2.9389909073
  H         9.3106528471       -2.2234019726        6.8314706821
  H        10.4771013221       -2.8906896816        5.8592052985
  H         8.7976324957       -3.2903517086        5.5416275578
  H        10.8665872582       -1.3853123381        8.5390388998
      42
 i =       60, time =       30.000, E =      -138.0821279340
  C         9.2445031795       -1.3712629017        4.7602392786
  C         8.4059103759        0.7019527967        5.8379227072
  C         9.7264330215        1.2524680985        5.8931337698
  C        10.7920759132        0.5781606000        5.2777491178
  C         9.4773025351       -2.5393768103        5.7479330106
  C         8.6758311254       -1.6746527860        3.4192661767
  C        10.0396844258        2.4453338686        6.6477349811
  C         9.0510963146        3.4147871733        7.0909158112
  C         9.7623099693        4.2598949868        8.0473003839
  C        10.8109764521        3.6757131182        8.7198782506
  C        10.9631527104        2.2459203525        8.4162691987
  C        13.3699815402        2.3067824201        7.6288405490
  C        14.6658014830        2.1505267358        8.4434883389
  C        12.3568515205        0.1326899292        8.2131240707
  C        11.4595315062       -0.7347297639        9.1148870237
  N        12.1878605376        1.6371181070        8.3168572507
  O         7.3603338740        1.3737173875        6.0821471862
  O        11.9700218566        0.8267424009        5.1281261024
  O        10.4741918326       -0.6229261951        4.6053196224
  O         8.1606068802       -0.5984330104        5.5179270893
  O         7.7976164388        3.6265105871        6.8515370526
  H         7.4460817142        2.6949429971        6.3755917379
  H        10.9281269622        2.8949752886        6.3568471250
  H         9.5631113652        5.3253896170        8.2065613145
  H        11.4090346246        4.1685455250        9.4144473038
  H        10.2562913632        1.5375498822        8.8819025625
  H        11.9793929332       -1.3168471976        9.8470541969
  H        10.7698360421       -0.1538281757        9.7974931743
  H        12.1094129598       -0.1041029203        7.2040356369
  H        13.3873186852       -0.0314037823        8.5432517875
  H        13.3867533228        1.8237174710        6.6105134173
  H        14.7628686131        3.0610234437        9.0888713240
  H        13.2538738056        3.3678238349        7.3294413601
  H        15.5652644805        2.1837571685        7.8557366439
  H        14.7046870940        1.2736083941        9.1314147305
  H         7.5874329837       -1.7698373456        3.4950955970
  H         8.7644834469       -0.8954584417        2.6844377137
  H         9.0711766991       -2.6130330319        3.0976706658
  H         9.2220489516       -2.1437542501        6.7569452844
  H        10.5390636436       -2.8191663469        5.7223124877
  H         8.8331927593       -3.3855348714        5.5267714537
  H        10.8223296949       -1.4014722019        8.5890819672
      42
 i =       80, time =       40.000, E =      -138.0743322533
  C         9.2692842117       -1.3535422154        4.7833622762
  C         8.4147225287        0.7171429833        5.8695537919
  C         9.7026695364        1.2383568277        5.8834655350
  C        10.7544711469        0.5495795271        5.2148848359
  C         9.5031932083       -2.5286424664        5.7097890877
  C         8.6645090056       -1.7280787777        3.4411932794
  C        10.0362954390        2.4282300615        6.6649244883
  C         9.1106686888        3.3900903998        7.1016227988
  C         9.7856522943        4.3613870671        8.0111003008
  C        10.7664523125        3.7437048655        8.6791540024
  C        10.9351218017        2.2434108692        8.4053803492
  C        13.3590931058        2.3353081686        7.6247793503
  C        14.6633305721        2.1968989198        8.4680178612
  C        12.3224074312        0.1560125259        8.2469693897
  C        11.4847248168       -0.7188632037        9.1683343282
  N        12.1915074358        1.6570602560        8.3036936356
  O         7.3828659247        1.3241224527        6.0587139629
  O        11.9391165871        0.8080144896        5.1602075587
  O        10.4637391436       -0.6660958639        4.6258165631
  O         8.1800099540       -0.6135010463        5.5401963316
  O         7.8239038085        3.6140470002        6.8598725367
  H         7.2225405340        2.8747257969        6.3305835756
  H        10.9388159306        2.8377274455        6.2585517249
  H         9.3646684663        5.3701526898        7.9901295542
  H        11.4896098460        4.1773384334        9.4633387583
  H        10.0428167903        1.6644229436        8.8326990864
  H        12.0960314117       -1.3581245184        9.7914966923
  H        10.7478116642       -0.0479344607        9.6721274618
  H        12.2194182090       -0.2679299899        7.1530003362
  H        13.4082516341       -0.0254630542        8.3622840796
  H        13.5522609937        1.7877011095        6.7215484466
  H        14.8794107599        2.9672962813        9.2912233648
  H        13.0713665046        3.3694306223        7.4522768729
  H        15.5545998566        2.2414710420        7.7175678126
  H        14.6108397332        1.1817190069        8.9179457893
  H         7.5350477685       -1.8528346625        3.5614567424
  H         8.8731727266       -0.8933818339        2.7308166320
  H         9.0978886694       -2.6139875538        2.9953060484
  H         9.2004512522       -2.2945347300        6.7377654443
  H        10.5477538072       -2.8483384427        5.6033403423
  H         8.9284626125       -3.4880242082        5.5142079738
  H        10.8471848638       -1.3806580111        8.4872791608
      42
 i =      100, time =       50.000, E =      -138.0710946933
  C         9.1830588364       -1.4003422138        4.8571907012
  C         8.3979681366        0.6909266099        5.8506913783
  C         9.7164497536        1.2163024228        5.9142232433
  C        10.7474150636        0.5410994978        5.2042933960
  C         9.5517573769       -2.5703954349        5.6905500047
  C         8.6591259888       -1.7362017184        3.4631007895
  C        10.0357435879        2.3919069885        6.6033311986
  C         9.1514207867        3.4302858929        7.0839396972
  C         9.7611369618        4.4007738932        7.9657675657
  C        10.7528251436        3.7478364697        8.6502534433
  C        10.9172591887        2.3075268749        8.3778275731
  C        13.3390872898        2.3570500989        7.6668052837
  C        14.6121256922        2.2277298908        8.4522324081
  C        12.3343160157        0.1763265941        8.2433223532
  C        11.4785445371       -0.6510484650        9.1723818268
  N        12.1714419473        1.6665775603        8.3211307981
  O         7.3193354050        1.2991238046        6.0673202157
  O        11.9391228882        0.8107606608        5.1854593284
  O        10.4467017990       -0.7193577366        4.6129924579
  O         8.2582334690       -0.6209935700        5.5156085757
  O         7.8932149471        3.6123413791        6.9043690779
  H         7.4665284255        2.7985866201        6.1927497525
  H        11.0288575640        2.8439058443        6.1469224426
  H         9.4132708590        5.4281596869        8.1057059158
  H        11.5602044931        4.3373568140        9.3133077053
  H        10.1434113523        1.5717749970        8.8247692663
  H        12.1252927304       -1.2414814695        9.8934754274
  H        10.8145762238       -0.1975249974        9.9131264594
  H        12.1247217517       -0.0934164597        7.0818693159
  H        13.4093281513       -0.1201955244        8.4756879115
  H        13.5563471261        1.9916544964        6.6420013311
  H        14.6750216567        2.8844630364        9.3812296310
  H        13.0715723771        3.4014887890        7.5052515373
  H        15.5631639049        2.2925718832        7.7432481325
  H        14.7956182787        1.2036728312        8.8355756139
  H         7.5335897926       -1.9650262009        3.5140763205
  H         8.8551184980       -0.9311460023        2.6889013758
  H         9.1227981578       -2.6429032857        2.9844821215
  H         9.3941043585       -2.4130872567        6.7577909842
  H        10.6211788871       -2.8250568865        5.7237320825
  H         8.8954929270       -3.4178448874        5.2801994830
  H        10.8750215795       -1.4698546886        8.6016516833
      42
 i =      120, time =       60.000, E =      -138.0870232088
  C         9.2077916644       -1.4521078451        4.8235795407
  C         8.3582961411        0.7193137499        5.8350528773
  C         9.6823663913        1.1572303325        5.9088129386
  C        10.7697064242        0.4648238579        5.2361017560
  C         9.5841425197       -2.6804587093        5.7234393212
  C         8.6369102954       -1.7532569174        3.4706117140
  C        10.0734397108        2.4608200360        6.5566926942
  C         9.2147827843        3.4792881093        7.0177793480
  C         9.7902933516        4.3790707689        7.9888265965
  C        10.7924845623        3.7719815661        8.6089196111
  C        10.9441528011        2.3075515937        8.3498581942
  C        13.2829266837        2.4108672959        7.6874988619
  C        14.5992023908        2.2131968242        8.4560329615
  C        12.3077261598        0.2154149941        8.2218636351
  C        11.4741431253       -0.6213798183        9.2108591570
  N        12.1669971138        1.7129359493        8.3615591579
  O         7.2763401808        1.2548350870        6.0769964882
  O        11.9362223985        0.8164464247        5.1862130381
  O        10.4401275626       -0.7141459429        4.6035902487
  O         8.2454287846       -0.6177843801        5.5152144083
  O         7.9100697295        3.5828771990        6.9107730285
  H         7.5372959716        2.7514066505        6.3187996176
  H        11.1297839595        2.8408099820        6.1497156094
  H         9.4810781005        5.3952849583        8.1703035610
  H        11.5381891263        4.3025932217        9.2648239697
  H        10.1195234683        1.7122861895        8.7815970154
  H        12.2027816455       -1.1410765342        9.9060292521
  H        10.8232603341        0.0018166239        9.8360130813
  H        12.0863387754       -0.1125258395        7.1751284072
  H        13.4328656664        0.0660344317        8.4843103292
  H        13.2226548409        2.0354423672        6.5788723213
  H        14.5095859153        2.9223454171        9.2991815597
  H        13.1471263966        3.5136087335        7.6070834162
  H        15.4283940021        2.7260338571        7.9207720331
  H        14.7958333405        1.2034992854        8.8441089578
  H         7.5494808610       -1.9393646053        3.4322681426
  H         8.7549423342       -0.8480491105        2.8012079165
  H         9.2422791084       -2.6677806565        3.1356075954
  H         9.3322451237       -2.5187207620        6.7719995708
  H        10.6684454385       -2.8203869386        5.5117625262
  H         9.1008585275       -3.6257172815        5.4371144830
  H        10.8177654935       -1.3746302053        8.6969282991
      42
 i =      140, time =       70.000, E =      -138.0776273301
  C         9.2428668740       -1.4965463628        4.8565370509
  C         8.3672095547        0.7024111709        5.8292547070
  C         9.7011021413        1.2308775303        5.9173617583
  C        10.7515309640        0.4417421228        5.3185550148
  C         9.6053869670       -2.7231560251        5.6970431279
  C         8.6392827989       -1.7786907782        3.4709842320
  C        10.1011284344        2.4519976074        6.4473469525
  C         9.2293839285        3.4981175541        6.9442688509
  C         9.8318967181        4.3889237046        7.9975657121
  C        10.9077640135        3.7680613495        8.6209313099
  C        10.9213017047        2.3345338276        8.3716131225
  C        13.2589566427        2.4710261007        7.6715952911
  C        14.5585736821        2.2850416799        8.4682242172
  C        12.2768816588        0.2509415871        8.2405469635
  C        11.4879928456       -0.5501786100        9.2470736538
  N        12.1732710335        1.7323582327        8.4101022891
  O         7.2453253037        1.2216157673        6.0867954696
  O        11.9181960503        0.8014902868        5.1755725900
  O        10.4403104184       -0.7256075805        4.5891343322
  O         8.1902063711       -0.6608064372        5.5121199891
  O         7.9148645717        3.5384056297        6.8895285590
  H         7.3168948320        2.7900569310        6.4839719450
  H        11.0934227643        2.7627707335        6.0423462757
  H         9.3791213796        5.3467224118        8.1249374772
  H        11.5333957499        4.1552183039        9.3196180090
  H        10.0664583988        1.7793240990        8.6454739488
  H        12.0908240206       -1.1523285630        9.9483420877
  H        10.8142883641        0.1427760496        9.7653451271
  H        12.1271996870       -0.0816854287        7.2633836194
  H        13.3763675155       -0.0195396581        8.2781305880
  H        13.3931104709        2.0724313577        6.5865346037
  H        14.4915138558        2.6645593288        9.4515765129
  H        12.9992509805        3.5842100097        7.6933911697
  H        15.3644616816        2.6626632771        7.9396884945
  H        14.8224662368        1.2143492787        8.6033710908
  H         7.6070113919       -2.0217981496        3.5689443089
  H         8.7785211592       -0.9173872700        2.8106946721
  H         9.1137056453       -2.5745152986        2.8458733688
  H         9.3755331766       -2.5226264390        6.7672678541
  H        10.7074961028       -2.9154322628        5.6229292037
  H         9.1737570618       -3.6573197350        5.5145087918
  H        10.8436872822       -1.2399247970        8.7664629515
      42
 i =      160, time =       80.000, E =      -138.0720019604
  C         9.2426817991       -1.5221219572        4.8435719642
  C         8.3663875299        0.6373702120        5.8520207175
  C         9.6572331421        1.1940860694        5.8949708035
  C        10.7312956309        0.4629435205        5.3195789104
  C         9.6317939281       -2.6983566467        5.6951863437
  C         8.6577422861       -1.7993994790        3.4801221543
  C        10.1171060232        2.5373312987        6.3968919500
  C         9.2442551359        3.4699434602        6.9486191887
  C         9.8938632832        4.3563923136        7.9369213413
  C        10.8932605758        3.8036220078        8.6262184975
  C        10.9146602048        2.3285510025        8.3546322124
  C        13.2665836395        2.5258532980        7.7074201420
  C        14.5317550482        2.3350453372        8.4694155157
  C        12.3062615254        0.2633466018        8.2467367079
  C        11.4553402671       -0.4675274070        9.2825659810
  N        12.1655616070        1.7381159802        8.4098768901
  O         7.2718805144        1.1886067906        6.0870756856
  O        11.8922125613        0.7591053020        5.1804323171
  O        10.4221765936       -0.7368579525        4.6245972965
  O         8.1889934194       -0.7039375864        5.5041529910
  O         7.9364553840        3.5299668668        6.8823439399
  H         7.5277950281        2.4624448556        6.3732724227
  H        11.0350854609        2.8460021451        6.0672678604
  H         9.4915535402        5.3315509534        8.1922611738
  H        11.5570362653        4.2118379190        9.2408790128
  H        10.0680348380        1.6805541610        8.5983667173
  H        12.0453647366       -0.9833630726       10.0154321667
  H        10.8361330315        0.0780330679        9.9982432481
  H        11.9129360716        0.0658888529        7.2608719562
  H        13.3186673232       -0.0443309583        8.3440529601
  H        13.4374328843        2.1791987621        6.6623394720
  H        14.5127198028        2.5151229303        9.5022625653
  H        12.9474907323        3.5928196314        7.4832368102
  H        15.3565185537        2.7861053834        8.0301318553
  H        14.7672387763        1.2716056793        8.3418998079
  H         7.6285582581       -2.0453494001        3.6683014767
  H         8.6515639301       -0.8949677030        2.9088636832
  H         9.0928784260       -2.5840802975        2.9129655208
  H         9.4251773771       -2.5097964633        6.7641418276
  H        10.6944425838       -2.9380513882        5.7108153967
  H         9.0177001931       -3.4788491205        5.2900096705
  H        10.8614945254       -1.1669113754        8.8009708152
      42
 i =      180, time =       90.000, E =      -138.0818319573
  C         9.2762706645       -1.4743104940        4.8169102166
  C         8.3890182614        0.5448748670        5.8609119270
  C         9.6614660407        1.2043788017        5.8897784319
  C        10.6978867733        0.4756737893        5.2381032793
  C         9.6111403209       -2.6708361828        5.7152270335
  C         8.6306937475       -1.8137296388        3.4961362498
  C        10.0851055725        2.4951660048        6.3641758945
  C         9.2316775056        3.4768296995        6.9878529126
  C         9.8995108684        4.4063495528        7.8776249664
  C        10.8463474829        3.7571661251        8.6175481363
  C        10.9513969357        2.3160592267        8.3502922983
  C        13.2412174156        2.5659197332        7.7207772992
  C        14.5724855847        2.3378718839        8.4683463759
  C        12.2803918912        0.2844962231        8.2725253324
  C        11.4325697029       -0.4235086510        9.3507834182
  N        12.1875789009        1.7892171728        8.3541987558
  O         7.2938644278        1.1674320929        6.0986626055
  O        11.9005270688        0.7209148226        5.1986916886
  O        10.4089368593       -0.7385971417        4.6799295834
  O         8.2141539291       -0.7373751067        5.5094723722
  O         7.9634119464        3.4984027074        6.8696858662
  H         7.4858359738        2.4771482382        6.2771746462
  H        10.9999808245        2.8297826705        5.9815523124
  H         9.5952565611        5.4510610941        7.9542512453
  H        11.5529243593        4.3259686194        9.2261296689
  H        10.0408241481        1.7081646069        8.6760615021
  H        12.1327014258       -0.9281866213        9.9518750729
  H        10.8218566978        0.3008889984        9.9039649646
  H        11.9493936244       -0.1113490243        7.2141558119
  H        13.3243073444        0.0520288194        8.3403328502
  H        13.2630369182        2.1070038425        6.7326941951
  H        14.4293114546        2.5544795480        9.5462636464
  H        13.0305573972        3.6441226082        7.6173163915
  H        15.2715738636        3.1449401760        8.2038965693
  H        14.9394558369        1.3440145178        8.3505650913
  H         7.5798561375       -2.1290901332        3.5395749674
  H         8.5874771122       -0.9347580607        2.8728949493
  H         9.2271669161       -2.5582353905        3.0672490693
  H         9.3158787099       -2.5725823524        6.7469231478
  H        10.6394268616       -2.9236507311        5.5233617075
  H         9.0642270793       -3.6230526440        5.4187599288
  H        10.7586091307       -1.1508410652        8.8919357792
      42
 i =      200, time =      100.000, E =      -138.0793535207
  C         9.2112830384       -1.5081830026        4.8463488377
  C         8.4055646808        0.5947571807        5.8815403981
  C         9.6629408983        1.1754720404        5.8500496183
  C        10.7365770604        0.5266487598        5.2080065621
  C         9.5732454754       -2.6844585123        5.7036112842
  C         8.6265588539       -1.8246385811        3.4735932391
  C        10.0345178654        2.4456280970        6.4218022530
  C         9.2354138137        3.4455693661        6.9431301638
  C         9.9020229274        4.4664966739        7.8555255429
  C        10.7884581253        3.7817589531        8.5655582394
  C        10.9095853753        2.3457929358        8.3612510105
  C        13.3113115078        2.5592765783        7.6805620951
  C        14.5899598954        2.3942485338        8.4844836884
  C        12.2509385086        0.3036347071        8.2950143212
  C        11.4508121044       -0.3628030163        9.3871480225
  N        12.1708773411        1.7722367054        8.3212178986
  O         7.3143004723        1.1357322469        6.1193076354
  O        11.9224712514        0.6975399005        5.2066010205
  O        10.4485003819       -0.7566919527        4.6752577727
  O         8.2180909639       -0.7540529198        5.5423308459
  O         7.9299232940        3.4554362607        6.8543817871
  H         7.4925854436        2.5862966129        6.3884369259
  H        11.0177255193        2.7999079163        5.9405936592
  H         9.6847799040        5.5145505179        7.7404147241
  H        11.5327520654        4.2031933449        9.4028153881
  H        10.0846871324        1.6162928544        8.6843994110
  H        12.0102903650       -0.9259963895       10.1415514826
  H        10.8601842599        0.3656857942        9.9673920740
  H        12.0721636477       -0.1431226987        7.2120474856