      42
 i =        0, time =        0.000, E =      -138.0881824940
  C         8.8779844900       -0.2252791200        3.9699297400
  C         8.4400471200        1.1669562500        5.8767016600
  C         9.7958673700        1.4282858200        6.0046207700
  C        10.7483024200        0.6481238500        5.2550999900
  C         8.4662252000       -1.5946619000        3.5563327800
  C         8.7594736900        0.8476138300        2.9075146400
  C        10.3540397000        2.4401524800        6.8484131400
  C         9.6600955400        3.3995061500        7.6317729800
  C        10.5571494000        3.8719504900        8.6585253600
  C        11.3359353800        2.8926963500        9.1470229400
  C        10.9347165500        1.5018130100        8.6387579500
  C        13.3199681700        1.0390862400        7.8999759200
  C        14.3155234800        1.3326460000        8.9877580000
  C        11.5307926400       -0.7420032500        8.0465906100
  C        11.7630401400       -1.7638250400        9.1394202500
  N        11.9805489200        0.6113013500        8.4322133700
  O         7.5289179800        1.6679164100        6.5562545100
  O        11.9792548000        0.6374993900        5.4207561500
  O        10.2228508400       -0.3106324300        4.3817447000
  O         7.9801459100        0.1624032900        5.0458925900
  O         8.3973835800        3.8503357200        7.5336266500
  H         7.7483360100        3.2700499400        6.9656437600
  H        11.4801083500        2.6687304600        6.7319058300
  H        10.4190228400        4.8727655300        9.0616411600
  H        12.2759364900        3.0387395200        9.7305498500
  H         9.8872116100        1.2129707800        8.7654242700
  H        11.6377462300       -1.3067109400       10.1266152300
  H        11.0828764200       -2.6243120100        9.1137841100
  H        10.4546067400       -0.7743564800        7.8543163700
  H        11.9325833800       -1.0256798600        7.0685263300
  H        13.6899780100        0.1750463600        7.2279563600
  H        14.6645977200        0.3327475400        9.4685815100
  H        13.1459480300        2.0236413500        7.2854567700
  H        13.9142181900        1.8249648600        9.8596220400
  H        15.2295717500        1.9466621400        8.6209278300
  H         9.2126823200        1.8332437600        3.1603997900
  H         9.1246499500        0.5513300700        1.9722062400
  H         7.6881623400        1.0064922500        2.6639280700
  H         8.2235838100       -2.2011126300        4.5320396500
  H         9.0921424700       -2.1217774400        2.8482504800
  H         7.4447634700       -1.5755281400        3.0911324300
  H        12.7174187000       -2.2656239500        9.0324710300
      42
 i =       20, time =       10.000, E =      -138.0812078325
  C         8.8917971144       -0.2332179451        3.9327510188
  C         8.4178020680        1.1509270868        5.8878642511
  C         9.8591529314        1.3542606417        6.0010696527
  C        10.8136591335        0.6214002544        5.2813783176
  C         8.4393136102       -1.6484618423        3.5886224999
  C         8.7201813958        0.8426574350        2.9058583048
  C        10.2682386256        2.4044719144        6.8516316101
  C         9.6214861302        3.4301088459        7.5649371065
  C        10.5091192301        3.9645661153        8.6472058109
  C        11.3222513915        2.9251624958        9.0995428864
  C        11.0205508624        1.5542975527        8.6883900397
  C        13.2943761904        1.0456237853        7.8860156594
  C        14.2985544328        1.3077393855        9.0301497932
  C        11.4855128447       -0.7275244294        8.0400844302
  C        11.8186529401       -1.7598573616        9.1419076393
  N        11.9647059695        0.6092620473        8.4716556973
  O         7.5135087001        1.6871029702        6.5523269755
  O        12.0083280667        0.6233540800        5.3877934607
  O        10.2329138797       -0.2917384127        4.4005510537
  O         8.0087094347        0.1326925434        5.0954324275
  O         8.3730826382        3.8491958009        7.5184198866
  H         7.8233049383        3.0892522518        6.7802062449
  H        11.4168333728        2.6514225088        6.5664990515
  H        10.4470277955        4.9950065109        8.9558988113
  H        12.1161883843        3.0723411405        9.7577135330
  H        10.0567305352        1.0527372058        8.9279245262
  H        11.8350428751       -1.3210974623       10.1546005680
  H        10.9912303911       -2.4074703104        9.1388531973
  H        10.4454706968       -0.6850532413        7.8084935542
  H        12.0401928160       -0.9928196941        7.0693562651
  H        13.7156243121        0.1965751114        7.1836252704
  H        14.8607546563        0.4827426905        9.5000246823
  H        13.1816108722        1.8825996886        7.1034724071
  H        13.9525120958        2.0400077418        9.8048397400
  H        15.1988630737        1.8714225620        8.4976377255
  H         9.0247908260        1.8499166583        3.2422119681
  H         9.2744359433        0.6627599954        1.9656231822
  H         7.6397719352        0.9882837655        2.7193933385
  H         8.2811732397       -2.3263282416        4.4750471314
  H         9.1800454668       -2.0645297085        2.9305276365
  H         7.5104152155       -1.6387784060        3.0245048078
  H        12.7855558770       -2.2686266837        9.0194590202
      42
 i =       40, time =       20.000, E =      -138.0842693306
  C         8.8650423035       -0.2540170029        3.9614959458
  C         8.4521804359        1.1111046691        5.9529340088
  C         9.7853378837        1.3475508920        6.0341440875
  C        10.8212030198        0.6023550751        5.3058492285
  C         8.4381064196       -1.6733891880        3.5895778832
  C         8.6582772929        0.8639567588        2.8933138919
  C        10.2939956990        2.3967519383        6.8995142631
  C         9.6096887480        3.4708548046        7.5517546666
  C        10.4652701726        3.9757969447        8.6271174095
  C        11.2791274758        3.0306186642        9.0713726311
  C        11.0484909642        1.6311503858        8.6828503302
  C        13.2910965320        0.9966788587        7.9369092732
  C        14.3158797319        1.3473199651        8.9907013689
  C        11.4895051088       -0.7572398676        8.0522457072
  C        11.8261499806       -1.7359625077        9.1358535640
  N        11.9903429932        0.6622979651        8.4595678101
  O         7.4922904149        1.7170633366        6.5271598266
  O        12.0623402382        0.5896901898        5.3378087482
  O        10.2764282011       -0.3236724990        4.3848264459
  O         8.0393172384        0.0742791369        5.0926475006
  O         8.3630505421        3.8157029376        7.4771566262
  H         7.6722103339        3.0513556134        6.9463713299
  H        11.3474440177        2.6705819729        6.6105331285
  H        10.5750528242        5.0016850103        8.9216655242
  H        12.0278731798        3.1743243937        9.7489747656
  H        10.0289067824        1.3600722597        9.0855021964
  H        12.0645757727       -1.2752144344       10.0980254401
  H        11.0838996619       -2.5027780737        9.2608791273
  H        10.4073055248       -0.7138578653        7.7970702153
  H        12.0184961155       -1.0851107792        7.0761718085
  H        13.6781790824        0.1832560321        7.2570416490
  H        14.5367265694        0.4109004375        9.4917847154
  H        13.1490051863        1.8761718335        7.2690229180
  H        13.8016765320        2.0360541341        9.7626963330
  H        15.1785175107        1.8421700896        8.5396818355
  H         8.9890015733        1.7688535400        3.3796437531
  H         9.3767787124        0.6633039652        2.0147496377
  H         7.6214242660        0.9166935924        2.5568250505
  H         8.4172851951       -2.2869846624        4.4444528754
  H         9.2785672883       -2.1721273882        3.1085457374
  H         7.5302905200       -1.6730884583        3.0339727884
  H        12.7839323142       -2.2746851858        8.8848840105
      42
 i =       60, time =       30.000, E =      -138.0781715972
  C         8.8497001712       -0.2598313707        3.9706180451
  C         8.4020120230        1.0658654550        5.9773513618
  C         9.8443682276        1.3725429334        6.0808767778
  C        10.8036111706        0.5816790192        5.3004597223
  C         8.5068966739       -1.6776418500        3.6096655977
  C         8.6584373461        0.8221682372        2.9470306094
  C        10.3396321497        2.4037149915        6.9060238377
  C         9.6136573682        3.4387867459        7.5363679222
  C        10.4203566255        4.0381994759        8.5752367799
  C        11.3252415668        3.1013340189        9.1326765944
  C        11.0337001494        1.6939071073        8.6845328956
  C        13.3269483185        1.0059594616        7.9006145686
  C        14.3045835803        1.3682679159        8.9894804324
  C        11.5030655835       -0.7038380857        8.0781127128
  C        11.8710913844       -1.7397611064        9.1487741849
  N        11.9257430841        0.6531305672        8.4443822820
  O         7.4829373818        1.6929835842        6.4708928101
  O        12.0194438972        0.5620791933        5.2993341408
  O        10.2896739751       -0.3474215870        4.3554631893
  O         8.0496462300        0.0309343359        5.1256220580
  O         8.3456416758        3.8018881958        7.4442982606
  H         7.7416873107        3.0929847809        7.1102355779
  H        11.3266034305        2.6334902047        6.6770663458
  H        10.3041476720        5.0652259322        8.8792958719
  H        12.1445529350        3.3995663108        9.7630420570
  H        10.0207837352        1.2687909332        8.9756799679
  H        12.0885762213       -1.2138312883       10.0832236427
  H        11.1216019469       -2.5221945288        9.4389272925
  H        10.3418365572       -0.7351901020        7.9081462859
  H        11.9392185346       -0.9629741065        7.0826716387
  H        13.6499498027        0.1640498600        7.3480543190
  H        14.5502431191        0.5157721169        9.6157928201
  H        13.2451634074        1.8480353286        7.2447300404
  H        13.9604926162        2.0852160548        9.7744169574
  H        15.2185404520        1.7313726921        8.7026772016
  H         8.8033515835        1.8530765976        3.2872885457
  H         9.3303364187        0.7067124801        2.0288809486
  H         7.6823490043        0.8463649659        2.4492414842
  H         8.2352877790       -2.1520314684        4.4929933176
  H         9.2379961836       -2.1874407883        2.9588485371
  H         7.5770981515       -1.7865075346        3.0585050082
  H        12.7228865750       -2.3273477377        8.7744356090
      42
 i =       80, time =       40.000, E =      -138.0845501113
  C         8.9148343422       -0.2745831829        3.9740492226
  C         8.4833400591        1.0730200121        5.9495771671
  C         9.8368465329        1.3086460169        6.0631573722
  C        10.7418136049        0.5687173986        5.2631075474
  C         8.5151973978       -1.6931698754        3.6179800977
  C         8.6644592726        0.7941576965        2.9480601340
  C        10.3685546848        2.4089645380        6.8406925182
  C         9.6329209666        3.3922497358        7.5362042884
  C        10.4392040953        4.0330440349        8.5965617857
  C        11.2942138863        3.1640658334        9.1184155691
  C        11.0587765518        1.7363918229        8.7411430818
  C        13.3097703569        1.0378133973        7.8856965974
  C        14.3040835268        1.3646613997        9.0633493463
  C        11.4501643168       -0.6796315914        8.1149048780
  C        11.9371193392       -1.7242765157        9.1585092186
  N        11.9380002072        0.7548071314        8.4330505979
  O         7.4527271766        1.6301590498        6.4244865605
  O        11.9571270298        0.5497714520        5.2881188015
  O        10.2400019255       -0.3313816345        4.3452755602
  O         8.0500957872       -0.0110908081        5.1846664794
  O         8.3541166200        3.8210621908        7.4389919421
  H         7.7049280605        3.0449619734        6.9640212372
  H        11.3964465845        2.6089055055        6.6531849961
  H        10.1042304681        5.0277715711        8.8691517614
  H        12.2369269904        3.3948052458        9.7382419812
  H        10.0103655498        1.3988302093        8.9141497738
  H        12.2740641278       -1.2910300865       10.1146245285
  H        10.9667291125       -2.3053504696        9.3474296587
  H        10.3083524414       -0.7003600109        8.0214272047
  H        11.8647968100       -0.9129178699        7.1383034581
  H        13.6993038342        0.1893235450        7.3578383620
  H        14.5855221350        0.5143845276        9.6746556205
  H        13.2303880143        1.7593620449        7.0506200841
  H        13.9415701584        2.2097180708        9.5627184124
  H        15.1977053674        1.6433063433        8.5650886112
  H         8.6932673296        1.8329506008        3.3639590979
  H         9.4518373974        0.6890626671        2.2146943279
  H         7.6211494330        0.6387801446        2.6075366715
  H         8.3502634119       -2.3131320844        4.5286070849
  H         9.3893155272       -2.1749984222        3.0961457171
  H         7.6244186890       -1.6867637098        2.9780651221
  H        12.7727691322       -2.3414056974        8.8742919127
      42
 i =      100, time =       50.000, E =      -138.0891795938
  C         8.8394876990       -0.3317835528        4.0239539254
  C         8.4346987169        1.0617189971        5.9225812316
  C         9.8386530292        1.3163609180        6.0722222627
  C        10.7322689711        0.5702541531        5.2443329114
  C         8.5352841747       -1.7230140703        3.6042157667
  C         8.6517338912        0.7667695118        2.9519643188
  C        10.3630543230        2.4174654572        6.7916300980
  C         9.6310415420        3.3924282795        7.5232113469
  C        10.3945318953        4.0469154519        8.6105063773
  C        11.3337888979        3.1493443749        9.0986481402
  C        11.0541700091        1.7585861742        8.7264931960
  C        13.3104254034        1.0474273207        7.9474740842
  C        14.2757256944        1.3875618893        9.0253078527
  C        11.4523697771       -0.6100793938        8.1910136614
  C        11.9475350008       -1.6461501519        9.1554673084
  N        11.9622569881        0.8162099332        8.4212307861
  O         7.4437870482        1.5972662388        6.4046226645
  O        11.9494960407        0.5474451759        5.2948787867
  O        10.2307095745       -0.3371020612        4.3370129157
  O         8.1040550975       -0.0625712296        5.1912853183
  O         8.3976949726        3.7856929191        7.4296362414
  H         7.7864797426        3.0052523419        6.7520126771
  H        11.4860632451        2.6332014490        6.5532416855
  H        10.3357952139        5.0908215235        8.9606554898
  H        12.1670824707        3.4034107456        9.8589100412
  H        10.0798186019        1.4442961815        9.1165810212
  H        12.3609021989       -1.2522093524       10.0990494970
  H        11.1610290279       -2.4034073463        9.4460547047
  H        10.3715009112       -0.5632652087        8.1880700417
  H        11.7218316827       -0.9270106875        7.1525232793
  H        13.6411902914        0.0818575318        7.3991790727
  H        14.3019546325        0.5675817255        9.7702996605
  H        13.2903680910        1.9032324388        7.1562572046
  H        13.9944331653        2.2127472799        9.6116178979
  H        15.2877830140        1.6317396380        8.5690007946
  H         8.6731246190        1.7723020440        3.4318883453
  H         9.3542407462        0.8052008030        2.1794195507
  H         7.6842312331        0.6308946042        2.4175889647
  H         8.3618549432       -2.4456889325        4.5269083639
  H         9.4120670400       -2.2191262347        3.1425593369
  H         7.6503624206       -1.7695880628        2.9188349552
  H        12.6926694701       -2.3178192496        8.7210719225
      42
 i =      120, time =       60.000, E =      -138.0852176968
  C         8.7769254409       -0.3621775769        3.9631429713
  C         8.4239032643        1.0414144300        5.9361576533
  C         9.7876786339        1.3603584346        6.0469340238
  C        10.7649230691        0.5668663019        5.2583394712
  C         8.5436942935       -1.8195123733        3.5811164147
  C         8.5999149471        0.7319340424        2.9721453562
  C        10.3603691323        2.4405209525        6.8311256489
  C         9.6912002849        3.4442917379        7.5281172089
  C        10.4500841212        4.0297901693        8.6276971214
  C        11.3363912734        3.1672814188        9.0893865869
  C        11.0239776077        1.7780309327        8.6593773123
  C        13.3314892675        1.0762569224        7.9265075841
  C        14.2783249977        1.4243634790        9.0517383221
  C        11.4205699348       -0.5143937838        8.2476296250
  C        11.9758115812       -1.6003812912        9.1789361902
  N        11.9369582291        0.7987149499        8.4432195643
  O         7.4158779724        1.6160925900        6.4091875843
  O        11.9825741392        0.5553399920        5.3103762361
  O        10.2509077484       -0.3590162321        4.3298519950
  O         8.1201430876       -0.1352548937        5.2001753630
  O         8.3861145305        3.7094085361        7.3905584218
  H         7.8077988210        3.0885269392        6.7993808208
  H        11.4749481133        2.7093255314        6.4869122598
  H        10.3134964430        5.0990067911        8.8760874579
  H        12.1342447105        3.3942049962        9.7905190724
  H        10.0930950997        1.3342393878        9.0719169739
  H        12.4469507474       -1.1286269885       10.0612166989
  H        11.2610476048       -2.2896889853        9.5595148473
  H        10.3535122185       -0.4900499162        8.3573594282
  H        11.5981465068       -0.8057187860        7.1455521160
  H        13.6986719340        0.1268822363        7.3071446577
  H        14.2991330684        0.6158575443        9.8158942989
  H        13.3272980566        1.9492653116        7.1729152221
  H        14.0599226859        2.3509711395        9.6069061541
  H        15.4065974541        1.4658578880        8.7831620913
  H         8.5961663601        1.7263216173        3.4214306243
  H         9.4430429505        0.7061731477        2.2698580292
  H         7.7180127482        0.7132639693        2.3324846724
  H         8.1804525284       -2.3990801473        4.5126145143
  H         9.4121764296       -2.1752626908        3.0198264016
  H         7.6790840197       -1.9736727940        2.8737971999
  H        12.7399899703       -2.1184999724        8.5648938333
      42
 i =      140, time =       70.000, E =      -138.0777302489
  C         8.8172256666       -0.4250217472        3.9525655574
  C         8.4132734965        1.0285926649        5.9502468312
  C         9.7877518031        1.3940839525        5.9646731099
  C        10.7474814602        0.5619277469        5.2620946875
  C         8.5097520080       -1.8681419099        3.5439515211
  C         8.5606146112        0.7179486316        2.9506771415
  C        10.3434446884        2.4167672251        6.7969627833
  C         9.6704928797        3.4748740768        7.4977380034
  C        10.4641640491        4.0856829485        8.5771222373
  C        11.3495813351        3.1343029921        9.1284677944
  C        11.0455681097        1.8023614440        8.6775206662
  C        13.3360321509        1.1294736036        7.9009467800
  C        14.3108633412        1.4287856568        9.1326897826
  C        11.3160226541       -0.5471868697        8.2684062108
  C        12.0429537089       -1.5225167513        9.1878381609
  N        12.0006604668        0.8530953537        8.4754427347
  O         7.4227946048        1.6038363308        6.3969847715
  O        11.9857877554        0.5736939543        5.3380950791
  O        10.2456682695       -0.3574649760        4.3314536056
  O         8.0953026755       -0.1904541125        5.2290568182
  O         8.3980264037        3.6877055696        7.4026026968
  H         7.8956190044        3.0278129676        6.7477052286
  H        11.4003213034        2.6205729328        6.5277474221
  H        10.2544006533        5.0875752319        8.9135410258
  H        12.1937313288        3.2856855541        9.6744656225
  H         9.9530923439        1.5367515689        8.8145185925
  H        12.5803931617       -1.1054856678       10.0391369451
  H        11.2832588199       -2.1658696502        9.5347483762
  H        10.2176184611       -0.5431201663        8.4577754478
  H        11.4524917029       -0.8434635130        7.1911190397
  H        13.7517636027        0.2605860812        7.2954757944
  H        14.2064157626        0.6815392585        9.9338798048
  H        13.2069268261        1.9149437466        7.1230806219
  H        14.0387949467        2.5042036560        9.4272721120
  H        15.3352729314        1.4168910765        8.6798705701
  H         8.5326701464        1.6709094808        3.4352527559
  H         9.5223242748        0.6927403878        2.3379122751
  H         7.6388249450        0.5771204583        2.4137449640
  H         8.3958322355       -2.4812182416        4.4285744399
  H         9.4627710865       -2.3404936201        3.2086206122
  H         7.7064401318       -1.9697340144        2.8146973891
  H        12.8534137851       -2.1485695167        8.7295898591
      42
 i =      160, time =       80.000, E =      -138.0788154822
  C         8.8467366379       -0.4508155341        4.0217433137
  C         8.4319778711        0.9620206819        5.8753722503
  C         9.7854221162        1.3815135684        5.9245949305
  C        10.7433026643        0.5780294677        5.2264341773
  C         8.5495931427       -1.8664354191        3.5578556291
  C         8.5650515767        0.6430653441        2.9744269278
  C        10.3481979451        2.4354228971        6.7505338207
  C         9.6911143926        3.4465362325        7.4617387788
  C        10.4938033013        4.0857789927        8.5519589381
  C        11.3255316260        3.2082920365        9.0986586804
  C        11.0632465470        1.8124536887        8.6575386306
  C        13.3525034244        1.1633167520        7.9647284129
  C        14.2795189586        1.4555515276        9.0705443931
  C        11.3502870066       -0.5364025062        8.2899202365
  C        12.0895149223       -1.4753502038        9.2058985951
  N        11.9638577615        0.8101749283        8.4924332688
  O         7.4315637221        1.5798448527        6.3860911663
  O        11.9253148330        0.5840448782        5.3653673794
  O        10.2325042501       -0.3675751526        4.3322584153
  O         8.0895464325       -0.2036630092        5.2412846581
  O         8.3824331921        3.7165897633        7.4369209773
  H         7.7989019425        2.9270275777        6.7293828586
  H        11.3548309651        2.5536645078        6.5699011316
  H        10.3869030074        5.0793997566        8.9029993348
  H        12.1182158348        3.4072846588        9.7198833552
  H        10.0140430442        1.3464786677        8.8461083782
  H        12.5180971013       -0.8995254275       10.0252247534
  H        11.4608216015       -2.2334494336        9.6902180690
  H        10.2264508065       -0.3905400456        8.6219218332
  H        11.3276545633       -0.8713625733        7.2463405679
  H        13.6310310358        0.2953337800        7.4205805049
  H        14.1033898401        0.8600309328        9.9860197420
  H        13.3391585167        2.0240037676        7.3100922419
  H        14.2390121295        2.4916273047        9.5895482747
  H        15.3256648584        1.3655551233        8.8354663973
  H         8.4168330798        1.6206353338        3.4308831006
  H         9.2487473434        0.8776316006        2.1008852275
  H         7.6586270924        0.4211500720        2.4056504682
  H         8.2175749033       -2.4607480801        4.3480597892
  H         9.4114938687       -2.3871332266        3.0985272068
  H         7.7495805416       -1.9015223936        2.8472742867
  H        12.8251968934       -2.0914631079        8.6620714515
      42
 i =      180, time =       90.000, E =      -138.0852755661
  C         8.8826367682       -0.4525483293        4.0085160027
  C         8.4162192127        0.9993550074        5.8588743566
  C         9.7610917070        1.3703973289        5.9473858594
  C        10.6951732210        0.6068935574        5.1857662081
  C         8.5716787481       -1.8589606016        3.5932166808
  C         8.5082611958        0.5740201399        2.9955828089
  C        10.3651057993        2.4438213797        6.7215625058
  C         9.6562806201        3.4441057323        7.4513446252
  C        10.4736222868        4.1225401606        8.4867972681
  C        11.3482721276        3.2070926992        9.0543548479
  C        11.0229005173        1.8087663319        8.6175543010
  C        13.3007269915        1.1466628628        8.0057087183
  C        14.3053436828        1.5012387472        9.1267709472
  C        11.3881349779       -0.5223661094        8.3297133627
  C        12.1380400582       -1.4756220308        9.2458701012
  N        11.9549301182        0.8414628301        8.4664013048
  O         7.4660796637        1.5428124890        6.3638291312
  O        11.9286989624        0.5798065913        5.3831300290
  O        10.2572817580       -0.4079995569        4.3366637068
  O         8.0887017162       -0.2243857767        5.2216159936
  O         8.3867617486        3.7262362102        7.4530848416
  H         7.7450708188        2.8689298745        7.0200447421
  H        11.3850788555        2.6293636338        6.4574700566
  H        10.3688381185        5.1666523546        8.6204889878
  H        12.0212895835        3.4779324066        9.8839286385
  H        10.0358343891        1.5449579662        9.0727153803
  H        12.6616087626       -0.9190397807       10.0389556693
  H        11.5077008911       -2.2496619432        9.7869194682
  H        10.2890259601       -0.5610593462        8.6506593713
  H        11.3812400899       -0.8098312016        7.2607634099
  H        13.6812830147        0.3797903462        7.3828204698
  H        14.0908917019        0.7935133775        9.9457973685
  H        13.2143857784        2.0098662024        7.3164971717
  H        14.2476317927        2.5673304378        9.3737841010
  H        15.2829504645        1.2075147683        8.8373888903
  H         8.3070887136        1.5723805294        3.4652589880
  H         9.3566711031        0.6336471279        2.2689533528
  H         7.5502987004        0.2720724591        2.5193640731
  H         8.1130674058       -2.4357131719        4.3603398374
  H         9.4342712871       -2.2648867571        3.0745944772
  H         7.8072646763       -1.7869718532        2.8343217169
  H        12.9454575764       -1.8878579432        8.6697526419
      42
 i =      200, time =      100.000, E =      -138.0851003163
  C         8.8679111512       -0.4850392791        4.0353004940
  C         8.4231286818        0.9966005798        5.8676226599
  C         9.7944347700        1.3829132952        5.9527168796
  C        10.7494431687        0.5941224780        5.2160841315
  C         8.5574417364       -1.8726529398        3.5751424955
  C         8.4503727779        0.5441835986        2.9837722848
  C        10.3304653237        2.4403335364        6.7315551083
  C         9.6671673163        3.4330770568        7.4224346406
  C        10.5038138485        4.1326541265        8.4055585491
  C        11.2948990499        3.2518840173        8.9868801309
  C        10.9752754522        1.8704365257        8.6253725359
  C        13.2979510964        1.1720422526        7.9913559896
  C        14.2993222571        1.4888439002        9.1698283349
  C        11.4059524240       -0.5522572896        8.3821483968
  C        12.2410907306       -1.4643985508        9.2831170706
  N        11.8973282746        0.8865183149        8.4627891682
  O         7.4135243865        1.5532561312        6.3867844840
  O        11.9171443783        0.5796628051        5.3700133312
  O        10.3070655919       -0.4329367154        4.3472639377
  O         8.1148843864       -0.2150607263        5.1982486319
  O         8.3572873958        3.7157342878        7.4720466996
  H         7.7658508684        2.9222911078        7.0757268604
  H        11.3925795177        2.7536443758        6.3528109964
  H        10.3812998381        5.1927922020        8.5642789620
  H        12.1535216836        3.3355891757        9.7760680155
  H         9.9836580525        1.5290733535        8.9366609902
  H        12.7297373263       -1.0259895873       10.1690042352
  H        11.5167936526       -2.2886638221        9.6163019341
  H        10.3414625585       -0.5974699781        8.5437848244