      42
 i =        0, time =        0.000, E =      -138.0791730111
  C         9.1943723700       -1.3286617300        4.8192849300
  C         8.3847594000        0.7927639200        5.8424350400
  C         9.7300754400        1.2972815100        5.9374068800
  C        10.7581613800        0.5648626400        5.2434085400
  C         9.4222203500       -2.4574625400        5.7726135600
  C         8.7280883000       -1.5955346700        3.4321318400
  C        10.0847699800        2.5067441000        6.5170180700
  C         9.2005996000        3.4478262700        7.2196495300
  C         9.7244726800        4.1768848500        8.3107386200
  C        10.8330127900        3.5201709200        8.7456440100
  C        10.9949618600        2.1535411300        8.3610601600
  C        13.3456530100        2.2912316600        7.6325892000
  C        14.6545998200        2.1559830300        8.4004369400
  C        12.4038055200        0.0136565700        8.1946511800
  C        11.3641263600       -0.6962721700        9.0633313300
  N        12.2418275400        1.5504573400        8.3672187700
  O         7.2760449100        1.2901649500        6.0875822800
  O        11.9391043300        0.8785878000        5.1356924200
  O        10.4567500800       -0.5906316100        4.5803925900
  O         8.1604549000       -0.4579502500        5.3209404100
  O         7.8919822900        3.5943047100        6.8586068000
  H         7.3885995200        2.7247235400        6.5414473300
  H        11.0983738900        2.9953672900        6.2724474300
  H         9.3610730200        5.0734078000        8.7643713200
  H        11.5774538400        3.9641784900        9.5285252600
  H        10.1504966500        1.3976998200        8.5430287400
  H        11.7170684700       -1.3867742300        9.8500216800
  H        10.7776409300       -0.0448782100        9.7026342000
  H        12.1048150800       -0.1978074900        7.0527230600
  H        13.4378272200       -0.2500645900        8.5184293200
  H        13.4007942700        1.7827918900        6.6518233700
  H        14.9388946100        3.0623909800        8.9475159800
  H        13.1152142600        3.3044188600        7.2875180200
  H        15.5529664400        1.8445167000        7.7688442400
  H        14.6176998300        1.4036159300        9.1539544100
  H         7.5790582100       -1.6213536200        3.4070579300
  H         8.9090254500       -0.7841382000        2.6736999900
  H         9.0746326900       -2.5630613900        3.0149546000
  H         9.3743279100       -2.1154176800        6.8021451200
  H        10.4705811900       -2.8269850900        5.7117149000
  H         8.6945619500       -3.2917662900        5.6150718900
  H        10.6158390300       -1.2835369900        8.4266335000
      42
 i =       20, time =       10.000, E =      -138.0849816520
  C         9.2314789637       -1.3267913232        4.7972552330
  C         8.3836736708        0.7758120199        5.8013378401
  C         9.7399054597        1.2055385057        5.9341588754
  C        10.8263373105        0.5554341113        5.2584588917
  C         9.4471541046       -2.4848226489        5.8050573806
  C         8.6750522110       -1.6299570550        3.4177261503
  C         9.9843886155        2.5132089707        6.5314511323
  C         9.1220218107        3.4602618799        7.1322898782
  C         9.7200125100        4.2369594169        8.2428727379
  C        10.8403138536        3.5763989872        8.7622396129
  C        11.0277054024        2.1289299598        8.4394211970
  C        13.3557337780        2.2613988465        7.6000816090
  C        14.6493770413        2.1548454025        8.4342514298
  C        12.3488356259        0.1037048373        8.2074687666
  C        11.4028293890       -0.6854874525        9.0829551031
  N        12.2666273213        1.5396104659        8.3771299641
  O         7.2802386437        1.3064664272        6.0989919709
  O        11.9853656796        0.8805448046        5.1199989957
  O        10.4152457422       -0.5967283396        4.5909249989
  O         8.1899163227       -0.4949629540        5.3920290940
  O         7.8712350155        3.6190041023        6.8629917574
  H         7.4635580085        2.6914526736        6.2828736228
  H        11.0023075745        2.9593254302        6.1191357348
  H         9.2179243056        5.1268767032        8.5410921443
  H        11.5916584921        4.0477668747        9.3486190150
  H        10.1639581759        1.4786165370        8.6247593226
  H        11.9752954962       -1.3805540033        9.7300141200
  H        10.7232767978       -0.0813543608        9.6203887820
  H        12.2812599422       -0.2571900846        7.1316865502
  H        13.4311911184       -0.1453197949        8.4579822102
  H        13.4702491389        1.7500953551        6.5646633682
  H        14.9580037342        3.0055603246        8.9452978818
  H        13.0448756684        3.3354691635        7.4356221504
  H        15.4642041443        1.9995690968        7.7643839556
  H        14.5122764045        1.3407716836        9.1156629323
  H         7.6081174036       -1.6228267539        3.4059906414
  H         8.9922774369       -0.7379508237        2.8528357367
  H         9.1010883809       -2.5333353034        2.9657448227
  H         9.1820592028       -2.1936376789        6.8178374480
  H        10.4440415251       -2.8843160687        5.5723371615
  H         8.7799144265       -3.3004616520        5.5884481041
  H        10.7449101433       -1.2869165698        8.4549292342
      42
 i =       40, time =       20.000, E =      -138.0752253652
  C         9.2307064141       -1.3611754896        4.8203245989
  C         8.4073438688        0.7298369688        5.7968432590
  C         9.6988890249        1.2205925965        5.9444885445
  C        10.8345196710        0.5836929047        5.2906071466
  C         9.4589710879       -2.4965140866        5.7571551400
  C         8.6538454236       -1.6368562161        3.3996584433
  C        10.0171642564        2.4768418974        6.6057036486
  C         9.0666724776        3.4697675104        7.1094860476
  C         9.7582930544        4.2235605973        8.1590601887
  C        10.8037137700        3.6142017183        8.7248474693
  C        10.9885522401        2.1922005324        8.4260835854
  C        13.3700607396        2.2421558518        7.6218866526
  C        14.6415994231        2.1547934822        8.4255943208
  C        12.3475592633        0.1149949243        8.2155952042
  C        11.4167038713       -0.7087930717        9.0908875611
  N        12.2561452168        1.6221893339        8.3375088585
  O         7.3191070328        1.3670610827        6.1084816827
  O        12.0158388443        0.8643589457        5.1128645241
  O        10.4269721311       -0.6284939139        4.5847034543
  O         8.1928555637       -0.5708246588        5.4515814237
  O         7.8147263643        3.6359231318        6.8552512746
  H         7.3678574748        2.6379547935        6.1504664887
  H        10.9800444860        2.9045267070        6.1952948834
  H         9.4026017868        5.2265494463        8.4063399207
  H        11.4755537910        4.1245370598        9.2396635693
  H        10.1770732140        1.5822677286        8.7784439979
  H        12.0710076606       -1.3013216901        9.7435775021
  H        10.7920470211       -0.1373329484        9.7704347541
  H        12.3241522803       -0.1334882168        7.1993514750
  H        13.3905852841       -0.2145173843        8.4521805018
  H        13.5415953977        1.8435684922        6.5350221133
  H        14.6878294031        3.0241687100        9.0130449751
  H        13.0997062285        3.3588719923        7.5434991917
  H        15.4388122555        1.9726599227        7.8164136892
  H        14.7321219539        1.3265758150        9.1592257864
  H         7.6295264051       -1.7752618392        3.4393736204
  H         8.9527366406       -0.9079580843        2.6814355484
  H         9.0609460939       -2.5305988016        2.9388163676
  H         9.3108940632       -2.2248784737        6.8318828952
  H        10.4781643024       -2.8900083903        5.8572512974
  H         8.7984707175       -3.2910307437        5.5411301276
  H        10.8675381408       -1.3848420974        8.5377022385
      42
 i =       60, time =       30.000, E =      -138.0825655913
  C         9.2484310438       -1.3759011655        4.7577656988
  C         8.4066885328        0.7206567093        5.8503360632
  C         9.7326855789        1.2707970525        5.9079055018
  C        10.7896591670        0.5793513834        5.2810311507
  C         9.4787423576       -2.5417017902        5.7468623765
  C         8.6770474837       -1.6757096806        3.4167026671
  C        10.0156894045        2.4407706928        6.6601849854
  C         9.0559799623        3.4116181842        7.0884494688
  C         9.7425536480        4.2481583891        8.0471337506
  C        10.8141759290        3.6717248295        8.7089196045
  C        10.9479610486        2.2601040023        8.3941849165
  C        13.3707236139        2.3057848240        7.6281891373
  C        14.6706016471        2.1513619792        8.4455478894
  C        12.3605248201        0.1278051269        8.2110321807
  C        11.4588558613       -0.7371442388        9.1163460585
  N        12.1900727361        1.6336091113        8.3201545659
  O         7.3727763593        1.3620677307        6.0828741969
  O        11.9670211035        0.8270126074        5.1293949618
  O        10.4747493314       -0.6263648260        4.6039581829
  O         8.1550561107       -0.5998970064        5.5184444621
  O         7.8105699906        3.6357354678        6.8526451394
  H         7.4250833780        2.7330689164        6.2748924165
  H        10.8898124417        2.9229359226        6.3255794366
  H         9.5754812825        5.3153252685        8.2510707401
  H        11.4576636000        4.1329435013        9.3823619825
  H        10.2719280585        1.5338328802        8.8862263916
  H        11.9773733527       -1.3192905755        9.8487742386
  H        10.7717280829       -0.1512257149        9.7968799957
  H        12.1131783083       -0.1228562308        7.2064556614
  H        13.3892938171       -0.0338425823        8.5466662433
  H        13.4062553321        1.8364895260        6.6070757088
  H        14.7668362958        3.0590380199        9.0930466634
  H        13.2529999691        3.3694430075        7.3417295289
  H        15.5681843724        2.1844314172        7.8558118026
  H        14.7055598696        1.2726469746        9.1319321333
  H         7.5891305678       -1.7718472622        3.4918372155
  H         8.7671715015       -0.8964293817        2.6823824883
  H         9.0727649400       -2.6141393061        3.0943969011
  H         9.2253708251       -2.1436290908        6.7558840970
  H        10.5413507068       -2.8189076650        5.7232765635
  H         8.8358656402       -3.3890031548        5.5274422052
  H        10.8226319038       -1.4017972480        8.5873171187
      42
 i =       80, time =       40.000, E =      -138.0715457169
  C         9.2632165426       -1.3522424748        4.7862585640
  C         8.4329455664        0.7058133687        5.8853938272
  C         9.7080326079        1.2405025598        5.8726274813
  C        10.7534495909        0.5500401135        5.2254919212
  C         9.5070232433       -2.5324293699        5.7078717306
  C         8.6681088522       -1.7306535386        3.4383106025
  C        10.0145314189        2.4180333581        6.6475009191
  C         9.0983229471        3.3829076677        7.0970723730
  C         9.7948894588        4.3343554182        8.0124739140
  C        10.7739467237        3.7507618347        8.6852977104
  C        10.9401094354        2.2398091867        8.3947592925
  C        13.3600869698        2.3329838288        7.6270841644
  C        14.6656169313        2.1963737518        8.4692307033
  C        12.3211113397        0.1536103784        8.2446496960
  C        11.4862180247       -0.7209159556        9.1675144387
  N        12.1833675497        1.6632668193        8.3074292925
  O         7.3699849808        1.3164226415        6.0598598231
  O        11.9337414102        0.8088255610        5.1603194010
  O        10.4631543008       -0.6595101886        4.6297303672
  O         8.1892158533       -0.5962827989        5.5432549876
  O         7.8342082309        3.6335415261        6.8659446507
  H         7.2550619930        2.9139589971        6.2307965514
  H        10.9022499115        2.8499277024        6.2405175159
  H         9.3050700131        5.3199252738        7.9665624298
  H        11.4857212590        4.2238030741        9.4518674588
  H        10.0242328512        1.6987869192        8.8215358028
  H        12.0938566074       -1.3595173480        9.7948585627
  H        10.7533276119       -0.0431501610        9.6683531010
  H        12.2315106062       -0.2646096248        7.1475367561
  H        13.4082671990       -0.0162544071        8.3666678995
  H        13.5386627284        1.7820684092        6.7243607956
  H        14.8786210527        2.9678268423        9.2926655164
  H        13.0694121398        3.3661524123        7.4575026504
  H        15.5600509652        2.2428533977        7.7225945814
  H        14.6147381602        1.1809725887        8.9194094532
  H         7.5381714270       -1.8518542736        3.5634784790
  H         8.8749178719       -0.8937686371        2.7300915070
  H         9.0981603344       -2.6160080947        2.9897822144
  H         9.1987331299       -2.2947606062        6.7334869560
  H        10.5503498400       -2.8546746811        5.6043794065
  H         8.9308128526       -3.4918101217        5.5149367142
  H        10.8400625337       -1.3839483895        8.4956337052
      42
 i =      100, time =       50.000, E =      -138.0699023033
  C         9.1881305567       -1.3951285696        4.8593419381
  C         8.3680345708        0.6972510740        5.8619240131
  C         9.7013631174        1.2061433252        5.8986703841
  C        10.7536396230        0.5307672793        5.1977301459
  C         9.5502873276       -2.5680871438        5.6885002871
  C         8.6607664949       -1.7345757477        3.4684330170
  C        10.0528616843        2.4014127414        6.5704510962
  C         9.1574948622        3.4171532791        7.0900964096
  C         9.7681969846        4.3976232463        7.9621751275
  C        10.7727582399        3.7468146976        8.6626246688
  C        10.9205116106        2.3106434347        8.3935292172
  C        13.3366148526        2.3560450238        7.6732505086
  C        14.6087655450        2.2247998130        8.4525083670
  C        12.3303543920        0.1847694573        8.2455364055
  C        11.4794870313       -0.6500636344        9.1693622063
  N        12.1726928916        1.6600629628        8.3163060296
  O         7.3150661130        1.2936049852        6.0688542478
  O        11.9493141670        0.8151915263        5.1865109945
  O        10.4397949328       -0.7163464560        4.6196420031
  O         8.2743964993       -0.6239933652        5.5174024147
  O         7.8622186914        3.6255296188        6.8916266772
  H         7.4998450066        2.7982314984        6.2896629933
  H        11.0755326241        2.8130217208        6.1833631524
  H         9.4241774942        5.4375718802        8.1048734437
  H        11.5374417197        4.3422483751        9.3661168164
  H        10.1351407733        1.5514924809        8.7922641753
  H        12.1348290773       -1.2375545286        9.8859432878
  H        10.8180175882       -0.2037773625        9.9170983178
  H        12.1185002569       -0.0777726217        7.0791249443
  H        13.4054513750       -0.1195620761        8.4775148569
  H        13.5481073642        1.9730896715        6.6493448765
  H        14.6716694482        2.8849111836        9.3803540608
  H        13.0823070906        3.4016645431        7.4926587837
  H        15.5567679190        2.2945122252        7.7387852211
  H        14.7989008203        1.2028533839        8.8362726123
  H         7.5367422698       -1.9688110181        3.5020955030
  H         8.8634848426       -0.9345313773        2.6916431348
  H         9.1347873518       -2.6412687389        2.9992787676
  H         9.4019558509       -2.4295415116        6.7573066545
  H        10.6233689557       -2.8148431110        5.7092286667
  H         8.9020298088       -3.4163932770        5.2691178069
  H        10.8783998193       -1.4710130639        8.5991250019
      42
 i =      120, time =       60.000, E =      -138.0878239502
  C         9.2091312173       -1.4524696099        4.8259473520
  C         8.3650767795        0.7220003816        5.8163203763
  C         9.6882074716        1.1769461068        5.9190993634
  C        10.7700189032        0.4738900234        5.2283483314
  C         9.5878086140       -2.6806039785        5.7203208851
  C         8.6420068114       -1.7496683646        3.4742938848
  C        10.0768188220        2.4733711340        6.5359295903
  C         9.2094778509        3.4849596864        7.0119266831
  C         9.8032266292        4.3923005336        7.9926958756
  C        10.7816385320        3.7647004865        8.6048136632
  C        10.9531767742        2.3008494154        8.3687992081
  C        13.2819178184        2.4077421507        7.6879910750
  C        14.5957972215        2.2109302446        8.4593826988
  C        12.3073189564        0.2137287689        8.2216951943
  C        11.4734241282       -0.6194783398        9.2106229225
  N        12.1589656635        1.7170000325        8.3545395046
  O         7.2451983327        1.2549387057        6.0866615595
  O        11.9393558746        0.8155104020        5.1891174504
  O        10.4515178369       -0.7208537024        4.6006804840
  O         8.2414646634       -0.6345232105        5.5297384269
  O         7.9162067524        3.5764729176        6.9048979621
  H         7.4244331534        2.7456064626        6.3533232371
  H        11.1572142735        2.8205171437        6.1620104542
  H         9.5560213046        5.4241991723        8.1847168544
  H        11.5715304194        4.2335823673        9.2595766767
  H        10.1060585659        1.6984871257        8.7653194032
  H        12.2081114887       -1.1466664011        9.8941640629
  H        10.8154465150       -0.0156187152        9.8460669066
  H        12.0753960876       -0.1254298607        7.1840299534
  H        13.4339960485        0.0570607311        8.4700042031
  H        13.2468627048        2.0398679750        6.5754923959
  H        14.5157980592        2.9180752224        9.3040992984
  H        13.1313975723        3.5117884633        7.6100511521
  H        15.4208865629        2.7221580974        7.9159051695
  H        14.7946255058        1.1996215287        8.8420138536
  H         7.5530414014       -1.9368545681        3.4462620016
  H         8.7575373089       -0.8471154030        2.8012298592
  H         9.2461571717       -2.6663628751        3.1431186143
  H         9.3312940588       -2.5252061159        6.7705202729
  H        10.6710294143       -2.8205000897        5.5094464701
  H         9.0989416116       -3.6197350164        5.4243657769
  H        10.8279116832       -1.3721774466        8.6802549028
      42
 i =      140, time =       70.000, E =      -138.0772973840
  C         9.2497784625       -1.4981087300        4.8576833628
  C         8.3613989712        0.7154136848        5.8196564836
  C         9.6995255991        1.2325180945        5.9178852062
  C        10.7398479197        0.4584007798        5.3210799779
  C         9.6128399037       -2.7311370942        5.6947982892
  C         8.6425920475       -1.7759683182        3.4697387786
  C        10.1002830833        2.4798407457        6.4822454684
  C         9.2318970711        3.5296599092        6.9295071926
  C         9.8402493943        4.4201300913        7.9923338206
  C        10.8984314881        3.7476119594        8.6109458124
  C        10.8846183905        2.3054283111        8.3403340751
  C        13.2610002411        2.4745741691        7.6694935895
  C        14.5578855677        2.2832279642        8.4731852352
  C        12.2766431059        0.2430241278        8.2373932161
  C        11.4881779897       -0.5564038173        9.2489449185
  N        12.1742522469        1.7238865058        8.3979787987
  O         7.2473212713        1.2079324219        6.0858876370
  O        11.9132975261        0.7980921640        5.1780673435
  O        10.4591268327       -0.7264639212        4.5891473881
  O         8.1780575367       -0.6509278144        5.5421095906
  O         7.9367352408        3.5184012094        6.9007779035
  H         7.4018776046        2.6012645431        6.4263083914
  H        11.0625467684        2.8445900747        6.0157924729
  H         9.3890429905        5.3689614170        8.0823804035
  H        11.5237566519        4.1929251910        9.2828648919
  H        10.0534131291        1.7600107281        8.6710819974
  H        12.0773249598       -1.1634791313        9.9563616011
  H        10.8173071807        0.1456581731        9.7579731915
  H        12.1238929264       -0.0814353830        7.2584192784
  H        13.3785324051       -0.0111661353        8.2736748509
  H        13.3760159406        2.0771565398        6.5844487048
  H        14.4879577250        2.6611287705        9.4559578480
  H        13.0087756385        3.5855831896        7.6993066200
  H        15.3695517380        2.6573444880        7.9532620911
  H        14.8147425888        1.2108628293        8.6068360637
  H         7.6107186363       -2.0146372796        3.5743700639
  H         8.7788688520       -0.9102632584        2.8126831398
  H         9.1033163170       -2.5669199063        2.8285662499
  H         9.3715226777       -2.5197738590        6.7633512543
  H        10.7134100457       -2.9293663314        5.6348369481
  H         9.1819559475       -3.6665177667        5.5197308150
  H        10.8334449170       -1.2390690493        8.7743522898
      42
 i =      160, time =       80.000, E =      -138.0746031993
  C         9.2631711105       -1.5214111107        4.8420877853
  C         8.3933011965        0.6187719658        5.8585864490
  C         9.6407864281        1.2258752041        5.8834784691
  C        10.7327081590        0.4698507339        5.3299390750
  C         9.6345616847       -2.7012256480        5.6949782138
  C         8.6551839514       -1.7879507078        3.4866128853
  C        10.1324213154        2.5088952409        6.4384156066
  C         9.2450634364        3.5156694647        6.9526891117
  C         9.9050645698        4.3723462330        7.9111592234
  C        10.8705515586        3.8036903462        8.6164893902
  C        10.8761002739        2.3231221637        8.2845664867
  C        13.2593690100        2.5254678729        7.7015159819
  C        14.5280465535        2.3321038016        8.4718520297
  C        12.3082968754        0.2502486294        8.2353938393
  C        11.4549121361       -0.4764816698        9.2819973967
  N        12.1538901422        1.7280503334        8.4085825107
  O         7.2740905684        1.1987565543        6.0845292023
  O        11.8833854581        0.7645563349        5.1833518929
  O        10.4142335670       -0.7337195794        4.6389292694
  O         8.2004290157       -0.6903372613        5.5218944607
  O         7.9536521143        3.4886577062        6.8955673100
  H         7.5500415350        2.4472910994        6.3873270253
  H        10.9960242165        2.8356780911        5.9854671440
  H         9.5402862550        5.3468987917        8.1808264928
  H        11.5338904557        4.1421052667        9.2724442483
  H        10.0992342508        1.6702049442        8.6403630783
  H        12.0484573654       -0.9814616399       10.0200275358
  H        10.8572472436        0.0997492053        9.9953180499
  H        11.9214252883        0.0248720063        7.2565826687
  H        13.3139114671       -0.0633941624        8.3533061263
  H        13.4581652097        2.2077154317        6.6587944412
  H        14.4865189588        2.5088671003        9.5047916370
  H        12.9396053819        3.5935003354        7.5019896269
  H        15.3592162330        2.7803753368        8.0463715827
  H        14.7534596956        1.2662058665        8.3524400106
  H         7.6273727765       -2.0380067267        3.6657051859
  H         8.6558807414       -0.8814629839        2.9179178068
  H         9.0964248698       -2.5711502601        2.9166810036
  H         9.4358897838       -2.5207424456        6.7660748793
  H        10.7019403540       -2.9305725495        5.7125396865
  H         9.0273352964       -3.4862141403        5.2852291726
  H        10.8495966641       -1.1727777421        8.8153032621
      42
 i =      180, time =       90.000, E =      -138.0800101301
  C         9.2830328687       -1.4815610010        4.8233794976
  C         8.4019070527        0.5492384176        5.8861554328
  C         9.6565092359        1.2057138229        5.8629701152
  C        10.6988752445        0.4866035881        5.2552962277
  C         9.6157572959       -2.6689966135        5.7154482145
  C         8.6293967358       -1.7946431469        3.5081052054
  C        10.1118281511        2.4694471274        6.4146767173
  C         9.2197598969        3.4443755895        6.9633365985
  C         9.9169149673        4.4227637265        7.8510332670
  C        10.8272856344        3.7520242800        8.6253026452
  C        10.9296879749        2.3397850832        8.2519418183
  C        13.2222465181        2.5521484428        7.7151158253
  C        14.5508400881        2.3330895954        8.4696080543
  C        12.2731695350        0.2755997062        8.2565120538
  C        11.4341450630       -0.4249653789        9.3465059339
  N        12.1806512330        1.7882210038        8.3683924008
  O         7.3000800158        1.1823813938        6.0932691515
  O        11.8990596394        0.7353925543        5.1976806218
  O        10.3923425412       -0.7250103568        4.7012323088
  O         8.2419114803       -0.7427487016        5.5095468775
  O         7.9916525768        3.4857058451        6.9004849363
  H         7.4045684703        2.3597407789        6.2382030592
  H        10.9796768609        2.8292745016        5.9490399450
  H         9.6553169703        5.4801544356        7.9279428653
  H        11.5040486758        4.2349052708        9.3345122819
  H        10.0324121054        1.7538373800        8.6707126639
  H        12.1470622989       -0.9261189344        9.9360357137
  H        10.8360077231        0.3029042606        9.9099235531
  H        11.9658182519       -0.1430968718        7.2097086661
  H        13.3254785698        0.0711778466        8.3357747373
  H        13.2638142730        2.1154277831        6.7215722932
  H        14.4011738172        2.5445373956        9.5473685847
  H        12.9952692655        3.6310284324        7.6346323927
  H        15.2473123329        3.1404965873        8.2048552144
  H        14.9194470536        1.3388066510        8.3517452763
  H         7.5776343828       -2.1084716174        3.5717255142
  H         8.5773368496       -0.9147222653        2.8901181649
  H         9.2189111833       -2.5421775813        3.0713450252
  H         9.3147719496       -2.5835152472        6.7453394620
  H        10.6455136779       -2.9272519023        5.5279973128
  H         9.0649513151       -3.6168448391        5.4037281827
  H        10.7554246179       -1.1548213254        8.9032864834
      42
 i =      200, time =      100.000, E =      -138.0800254237
  C         9.2244899656       -1.5065680915        4.8548943512
  C         8.4339152791        0.5845740229        5.8768220923
  C         9.6609596875        1.1693678228        5.8529514968
  C        10.7590982706        0.5231364733        5.2021073069
  C         9.5796620882       -2.6948942562        5.7075835592
  C         8.6198906745       -1.8100676118        3.4814427163
  C        10.0888006455        2.4018051552        6.4518564758
  C         9.2281486573        3.4384212922        6.9472083265
  C         9.9250939150        4.4401561272        7.8214481731
  C        10.7626100186        3.7924833051        8.5854547260
  C        10.8914704974        2.3467408466        8.2679518827
  C        13.2885272202        2.5456999726        7.6666234069
  C        14.5591313899        2.3862721871        8.4821239319
  C        12.2332135417        0.3203425273        8.2819641959
  C        11.4542118785       -0.3618779369        9.3786309380
  N        12.1715746978        1.7746838496        8.3553950585
  O         7.2880612849        1.1392973885        6.1158375794
  O        11.9310024876        0.7168852262        5.1978004079
  O        10.4551747333       -0.7426056351        4.6875697523
  O         8.2087603928       -0.7364456934        5.5610685923
  O         7.9604718550        3.4708583083        6.8941586075
  H         7.4767527866        2.3545578604        6.3351725863
  H        10.9954999293        2.8552092198        5.8936624836
  H         9.6718498128        5.4782675681        7.5974473923
  H        11.3859234684        4.2308364557        9.4889580501
  H        10.0852582852        1.5904526250        8.6720455136
  H        12.0240843008       -0.9255612508       10.1224473491
  H        10.8738902114        0.3711638330        9.9643732056
  H        12.0412032563       -0.1015360751        7.1970276962