      42
 i =        0, time =        0.000, E =      -138.0881824940
  C         8.8779844900       -0.2252791200        3.9699297400
  C         8.4400471200        1.1669562500        5.8767016600
  C         9.7958673700        1.4282858200        6.0046207700
  C        10.7483024200        0.6481238500        5.2550999900
  C         8.4662252000       -1.5946619000        3.5563327800
  C         8.7594736900        0.8476138300        2.9075146400
  C        10.3540397000        2.4401524800        6.8484131400
  C         9.6600955400        3.3995061500        7.6317729800
  C        10.5571494000        3.8719504900        8.6585253600
  C        11.3359353800        2.8926963500        9.1470229400
  C        10.9347165500        1.5018130100        8.6387579500
  C        13.3199681700        1.0390862400        7.8999759200
  C        14.3155234800        1.3326460000        8.9877580000
  C        11.5307926400       -0.7420032500        8.0465906100
  C        11.7630401400       -1.7638250400        9.1394202500
  N        11.9805489200        0.6113013500        8.4322133700
  O         7.5289179800        1.6679164100        6.5562545100
  O        11.9792548000        0.6374993900        5.4207561500
  O        10.2228508400       -0.3106324300        4.3817447000
  O         7.9801459100        0.1624032900        5.0458925900
  O         8.3973835800        3.8503357200        7.5336266500
  H         7.7483360100        3.2700499400        6.9656437600
  H        11.4801083500        2.6687304600        6.7319058300
  H        10.4190228400        4.8727655300        9.0616411600
  H        12.2759364900        3.0387395200        9.7305498500
  H         9.8872116100        1.2129707800        8.7654242700
  H        11.6377462300       -1.3067109400       10.1266152300
  H        11.0828764200       -2.6243120100        9.1137841100
  H        10.4546067400       -0.7743564800        7.8543163700
  H        11.9325833800       -1.0256798600        7.0685263300
  H        13.6899780100        0.1750463600        7.2279563600
  H        14.6645977200        0.3327475400        9.4685815100
  H        13.1459480300        2.0236413500        7.2854567700
  H        13.9142181900        1.8249648600        9.8596220400
  H        15.2295717500        1.9466621400        8.6209278300
  H         9.2126823200        1.8332437600        3.1603997900
  H         9.1246499500        0.5513300700        1.9722062400
  H         7.6881623400        1.0064922500        2.6639280700
  H         8.2235838100       -2.2011126300        4.5320396500
  H         9.0921424700       -2.1217774400        2.8482504800
  H         7.4447634700       -1.5755281400        3.0911324300
  H        12.7174187000       -2.2656239500        9.0324710300
      42
 i =       20, time =       10.000, E =      -138.0817953169
  C         8.8919766022       -0.2334383664        3.9323932257
  C         8.4146185586        1.1451218665        5.8827120741
  C         9.8544649458        1.3485683847        6.0022735205
  C        10.8132882952        0.6213440929        5.2815673597
  C         8.4393164804       -1.6484878501        3.5886030106
  C         8.7201857387        0.8426339040        2.9058352316
  C        10.2813304827        2.3940877332        6.8666198988
  C         9.6188129495        3.4347418787        7.5767505217
  C        10.5068936049        3.9726821930        8.6559490959
  C        11.3185032261        2.9264594599        9.0903188681
  C        11.0195810953        1.5538950058        8.6719719320
  C        13.2944526399        1.0455639531        7.8858857580
  C        14.2985606449        1.3077735457        9.0301576927
  C        11.4855580359       -0.7277112198        8.0399947322
  C        11.8186538817       -1.7598729915        9.1419140591
  N        11.9658122659        0.6083787430        8.4714764178
  O         7.5215224187        1.6962555890        6.5562000312
  O        12.0082105322        0.6234766336        5.3878151191
  O        10.2329014733       -0.2918511031        4.4003655896
  O         8.0078644420        0.1316732595        5.0945490190
  O         8.3672218243        3.8482344017        7.5103014929
  H         7.8399775214        3.0862380531        6.8053516678
  H        11.4213092086        2.6532297618        6.5642610266
  H        10.4472200320        5.0031133559        8.9616612620
  H        12.1114962238        3.0699947787        9.7514849621
  H        10.0585746976        1.0518741957        8.9261950876
  H        11.8350532906       -1.3210056273       10.1545424532
  H        10.9912400811       -2.4074300500        9.1388408632
  H        10.4454556361       -0.6852897568        7.8084320780
  H        12.0400767863       -0.9931829124        7.0693265320
  H        13.7160037283        0.1966587049        7.1835236441
  H        14.8606749073        0.4827083533        9.5000176096
  H        13.1821840284        1.8824679909        7.1033520261
  H        13.9524750471        2.0398561962        9.8048578857
  H        15.1988830632        1.8713321427        8.4976285780
  H         9.0246371799        1.8499792836        3.2423190375
  H         9.2744281451        0.6627639910        1.9656166375
  H         7.6397241555        0.9884284837        2.7194664854
  H         8.2811694588       -2.3263562820        4.4750639760
  H         9.1800510634       -2.0645938057        2.9305112381
  H         7.5103823649       -1.6387884178        3.0245086293
  H        12.7855339090       -2.2685886182        9.0194621185
      42
 i =       40, time =       20.000, E =      -138.0817392259
  C         8.8676661917       -0.2557583644        3.9586986632
  C         8.4457604063        1.1126588810        5.9531872343
  C         9.7808554599        1.3480450290        6.0356044308
  C        10.8190209093        0.6022953732        5.3092320576
  C         8.4380217126       -1.6739424719        3.5890675750
  C         8.6581685483        0.8640459304        2.8931575363
  C        10.2816261078        2.3810849957        6.9183813269
  C         9.6131697326        3.4645278102        7.5607109821
  C        10.4421742356        3.9784978632        8.6319771129
  C        11.2715465868        3.0316927329        9.0622260700
  C        11.0579913629        1.6426587027        8.6783747907
  C        13.2927769786        0.9957536369        7.9339564360
  C        14.3164682848        1.3477166687        8.9906548856
  C        11.4903948173       -0.7582225372        8.0501005704
  C        11.8260216947       -1.7366766253        9.1359862701
  N        11.9988854139        0.6554953652        8.4622025468
  O         7.5186098407        1.7255506322        6.5311015665
  O        12.0600432622        0.5908456249        5.3373489500
  O        10.2754766283       -0.3240031613        4.3832736860
  O         8.0318285278        0.0697740833        5.0891306781
  O         8.3666938080        3.8193113868        7.4662440251
  H         7.6988115231        3.1393941270        6.9386958523
  H        11.3267961466        2.6729782987        6.6002918739
  H        10.5682068505        4.9992945889        8.9449361750
  H        12.0337046201        3.1685524709        9.7278478741
  H        10.0404042957        1.3559566379        9.0784912171
  H        12.0649085050       -1.2724586370       10.0965945603
  H        11.0838694601       -2.5028400873        9.2616999033
  H        10.4079736182       -0.7144020321        7.7980939490
  H        12.0171012506       -1.0920412058        7.0749082173
  H        13.6853693784        0.1838944916        7.2553415981
  H        14.5348189732        0.4105676591        9.4918976567
  H        13.1538111844        1.8764907306        7.2682176824
  H        13.7996482236        2.0338829854        9.7629471373
  H        15.1793177685        1.8420954566        8.5404420326
  H         8.9891111417        1.7683117621        3.3797692826
  H         9.3764947006        0.6642710788        2.0141917147
  H         7.6214676152        0.9164983716        2.5565377090
  H         8.4178769190       -2.2868330969        4.4444314024
  H         9.2780861993       -2.1740837017        3.1086335994
  H         7.5300875938       -1.6738587979        3.0339734376
  H        12.7845043711       -2.2740802760        8.8854953387
      42
 i =       60, time =       30.000, E =      -138.0806954602
  C         8.8462316376       -0.2612499023        3.9711493943
  C         8.4156005877        1.0567585281        5.9727993351
  C         9.8511385216        1.3627384007        6.0790328708
  C        10.8000249179        0.5807879833        5.3023241359
  C         8.5079059305       -1.6806805863        3.6068553824
  C         8.6589208554        0.8220568010        2.9458089688
  C        10.3247955391        2.3886207754        6.9153050571
  C         9.5958967333        3.4250345494        7.5310724341
  C        10.4042586227        4.0269931442        8.5885233322
  C        11.3288060185        3.1145865470        9.1358695131
  C        11.0384326903        1.6870062123        8.6783530525
  C        13.3361494764        1.0033266540        7.8955242496
  C        14.3065266259        1.3685058771        8.9881875608
  C        11.5056865396       -0.7056746557        8.0763250163
  C        11.8708133785       -1.7408058505        9.1479397498
  N        11.9342274644        0.6546175492        8.4522054788
  O         7.4931855756        1.7037660199        6.4824745419
  O        12.0143229624        0.5647240217        5.2992998679
  O        10.2885217554       -0.3458132036        4.3558581241
  O         8.0425275997        0.0301275891        5.1203383784
  O         8.3557604039        3.8282968633        7.4415122867
  H         7.7158770419        3.1607238846        6.9567413775
  H        11.3181947931        2.6182071352        6.6985558581
  H        10.2286453762        5.0543230240        8.8951864062
  H        12.1553834747        3.4453306305        9.7396184578
  H        10.0306542948        1.2721498808        8.9871751697
  H        12.0868975015       -1.2132176849       10.0821871483
  H        11.1217354997       -2.5220271702        9.4404280795
  H        10.3451703322       -0.7259860953        7.9082573006
  H        11.9391992302       -0.9613394864        7.0806509601
  H        13.6571746842        0.1634089983        7.3414648684
  H        14.5505731520        0.5164338314        9.6160940899
  H        13.2460086259        1.8435921323        7.2393712866
  H        13.9568095499        2.0849808480        9.7712735934
  H        15.2216686539        1.7331603056        8.7087884921
  H         8.8033448406        1.8515746095        3.2896290235
  H         9.3296961281        0.7097766712        2.0264986706
  H         7.6814388293        0.8448664273        2.4501213565
  H         8.2350227628       -2.1515176271        4.4926159349
  H         9.2359739419       -2.1943305723        2.9561631053
  H         7.5759390661       -1.7879616867        3.0584496492
  H        12.7230293433       -2.3298601149        8.7774881833
      42
 i =       80, time =       40.000, E =      -138.0804299578
  C         8.9111062301       -0.2775410030        3.9719650450
  C         8.4735048460        1.0702857653        5.9585638425
  C         9.8363844427        1.2882092255        6.0678866260
  C        10.7467982664        0.5599309253        5.2551094094
  C         8.5150006879       -1.6961983472        3.6153956961
  C         8.6633569567        0.7926605967        2.9474416782
  C        10.3902763515        2.3930129115        6.8699240416
  C         9.6170699631        3.3887572325        7.5450719278
  C        10.4233959662        4.0197714118        8.6087304123
  C        11.3010670711        3.1679018010        9.1222654113
  C        11.0439967446        1.7437853559        8.7133963246
  C        13.3178593483        1.0356840754        7.8817821027
  C        14.3104558274        1.3653683536        9.0605670185
  C        11.4572247635       -0.6738600854        8.1168681197
  C        11.9368951417       -1.7257680190        9.1568138226
  N        11.9492343765        0.7501539275        8.4373856421
  O         7.4661285782        1.6357970172        6.4305496433
  O        11.9613318677        0.5523375149        5.2872468945
  O        10.2348590770       -0.3331056700        4.3430905925
  O         8.0446812575       -0.0029251626        5.1830422690
  O         8.3379859706        3.8533452025        7.4270702288
  H         7.7520944421        3.1153108652        6.7780845208
  H        11.4085549680        2.6085557731        6.6673992322
  H        10.0632486059        5.0006464606        8.8830907637
  H        12.2349888072        3.4019855221        9.7566589577
  H        10.0190442606        1.3843090282        8.9485643392
  H        12.2717743955       -1.2946621807       10.1146247810
  H        10.9637681710       -2.3033065560        9.3406336673
  H        10.3160250933       -0.6970874261        8.0198514327
  H        11.8723618208       -0.9064554360        7.1399190511
  H        13.7019925069        0.1804584656        7.3606857288
  H        14.5882280760        0.5166304111        9.6754218129
  H        13.2427425746        1.7510699441        7.0435982387
  H        13.9388172843        2.2085716854        9.5561580307
  H        15.2066527013        1.6470223900        8.5695822266
  H         8.6948597089        1.8307670595        3.3626589261
  H         9.4545966650        0.6843084722        2.2172856380
  H         7.6216539220        0.6410190280        2.6022551949
  H         8.3527794006       -2.3223730791        4.5231500969
  H         9.3933430113       -2.1710129795        3.0924590670
  H         7.6260977043       -1.6934983104        2.9730326168
  H        12.7710672903       -2.3443347419        8.8739384107
      42
 i =      100, time =       50.000, E =      -138.0886724531
  C         8.8318084531       -0.3318720186        4.0257939929
  C         8.4361048028        1.0537517477        5.9313027140
  C         9.8415425210        1.3148461575        6.0931348365
  C        10.7358935592        0.5637890525        5.2477686135
  C         8.5340828848       -1.7247077930        3.6019627872
  C         8.6500189961        0.7640524756        2.9497151973
  C        10.3736124712        2.3772015208        6.8368553156
  C         9.6273670672        3.4061567978        7.5479388770
  C        10.3603194216        4.0448068598        8.6280600531
  C        11.3120140051        3.1340573298        9.0878634798
  C        11.0632318924        1.7696109718        8.6902162827
  C        13.3127146261        1.0444801129        7.9446750048
  C        14.2855938951        1.3898466594        9.0215825507
  C        11.4620590978       -0.6032942207        8.1909522850
  C        11.9482111109       -1.6481813968        9.1545842635
  N        11.9694214978        0.8176903356        8.4286045173
  O         7.4601443794        1.6161389381        6.4132982370
  O        11.9552674239        0.5477564146        5.2866113281
  O        10.2293640365       -0.3446955052        4.3297553465
  O         8.0961518192       -0.0564166377        5.1858041921
  O         8.3881905089        3.7988953275        7.3873440152
  H         7.8077746547        3.1758601876        6.8338627006
  H        11.4607517201        2.6595345930        6.5057877738
  H        10.3602701002        5.0670724604        9.0039324484
  H        12.1509473722        3.3435929052        9.8564862617
  H        10.0900204926        1.4452927961        9.0937794305
  H        12.3600662432       -1.2624044255       10.1014061131
  H        11.1538270444       -2.4029281127        9.4324022630
  H        10.3793462499       -0.5571816010        8.1858328912
  H        11.7324457191       -0.9335345148        7.1567127813
  H        13.6536821701        0.0749874485        7.4107736795
  H        14.3092929794        0.5699134712        9.7662966042
  H        13.3047625333        1.8962616196        7.1514752754
  H        14.0042803059        2.2135643699        9.6100766598
  H        15.2943929070        1.6312744998        8.5597189116
  H         8.6726625167        1.7692438632        3.4307302954
  H         9.3548829142        0.7986546790        2.1796570623
  H         7.6851039420        0.6301154895        2.4118335004
  H         8.3670313686       -2.4530178488        4.5202565606
  H         9.4162819043       -2.2117966171        3.1405861742
  H         7.6524409402       -1.7759884780        2.9135970422
  H        12.6920146285       -2.3189071022        8.7158133335
      42
 i =      120, time =       60.000, E =      -138.0850606664
  C         8.7732998983       -0.3621223764        3.9626353074
  C         8.4315804559        1.0422243676        5.9448206769
  C         9.7864394832        1.3403463350        6.0493344430
  C        10.7601788936        0.5612792837        5.2697740566
  C         8.5420321645       -1.8187473063        3.5798233040
  C         8.5982328368        0.7292798525        2.9688736302
  C        10.3288000131        2.4235482590        6.8719650986
  C         9.6759027490        3.4398330502        7.5261458958
  C        10.4027701516        4.0311562341        8.6581702326
  C        11.3014471230        3.1606249178        9.0836194509
  C        11.0357390460        1.7715594474        8.6473335928
  C        13.3430612107        1.0741363550        7.9284468283
  C        14.2890588903        1.4275495239        9.0446160584
  C        11.4284083115       -0.5158816732        8.2464642566
  C        11.9763092322       -1.6028776222        9.1770107013
  N        11.9675601504        0.7873122034        8.4503589793
  O         7.4457796893        1.6345329587        6.4209885699
  O        11.9745836750        0.5543651676        5.2947522700
  O        10.2542373937       -0.3564121975        4.3344660210
  O         8.1097082023       -0.1302091811        5.1954421605
  O         8.4185968911        3.7461708397        7.3495446245
  H         7.7868484334        3.0243861290        6.7782883994
  H        11.4477388982        2.7002540924        6.5258571674
  H        10.2469649175        5.0943140897        8.9326643752
  H        12.1194946040        3.4341649506        9.7417353479
  H        10.0830485495        1.3052765169        9.0027082454
  H        12.4430409698       -1.1366229158       10.0651078323
  H        11.2595368997       -2.2922422379        9.5533908599
  H        10.3622169863       -0.4800365851        8.3543294902
  H        11.6132928265       -0.7958332473        7.1420775436
  H        13.7030300103        0.1222068298        7.3055469723
  H        14.3178421750        0.6187644464        9.8093205494
  H        13.3230371434        1.9410178979        7.1640063814
  H        14.0808412822        2.3545605670        9.6000840236
  H        15.4152059922        1.4646586941        8.7659021415
  H         8.5915246344        1.7253795223        3.4139839981
  H         9.4417592631        0.7010287326        2.2679645835
  H         7.7154836044        0.7061656524        2.3296742149
  H         8.1807098088       -2.3987694907        4.5104598216
  H         9.4118171290       -2.1704888904        3.0173391575
  H         7.6770315100       -1.9735564218        2.8730136542
  H        12.7436906322       -2.1215236548        8.5672305434
      42
 i =      140, time =       70.000, E =      -138.0762325923
  C         8.8273579932       -0.4240070710        3.9476409832
  C         8.4232579523        1.0147087342        5.9376656422
  C         9.7924171043        1.3785934975        5.9759636848
  C        10.7458984988        0.5541173369        5.2636455187
  C         8.5077914144       -1.8641500904        3.5458161359
  C         8.5594061100        0.7152664518        2.9467766039
  C        10.3365505978        2.3901033281        6.8143334899
  C         9.6565435232        3.4821191463        7.5038043699
  C        10.4207806256        4.0670945867        8.5989483346
  C        11.3316052769        3.1488512576        9.1499911434
  C        11.0371341854        1.7827880977        8.6619441132
  C        13.3613102799        1.1255811385        7.8921740541
  C        14.3355458601        1.4345557758        9.1253115845
  C        11.3297835424       -0.5555585225        8.2612869775
  C        12.0434035719       -1.5323420744        9.1868914001
  N        12.0243329418        0.8432014296        8.4970086204
  O         7.4320233868        1.6229648249        6.4164861530
  O        11.9820213669        0.5746698325        5.3235504165
  O        10.2326928680       -0.3528391490        4.3395872198
  O         8.0813076095       -0.1786091449        5.2354376468
  O         8.4072401111        3.7428064906        7.3446414234
  H         7.8812148198        2.9115155734        6.7204218731
  H        11.3996149421        2.5920121884        6.5632375583
  H        10.1027584610        5.0515296750        8.9547410178
  H        12.1684644575        3.3171586134        9.6932386226
  H         9.9717564385        1.4767407314        8.8583157566
  H        12.5728160510       -1.1016986565       10.0378492161
  H        11.2844547482       -2.1742875812        9.5338079503
  H        10.2324925006       -0.5346769599        8.4552199258
  H        11.4519523878       -0.8584189423        7.1880182727
  H        13.7956616774        0.2691982776        7.2865743029
  H        14.2289513612        0.6934001654        9.9327664537
  H        13.2230523357        1.9160239011        7.1233337004
  H        14.0522336463        2.5069138664        9.4123698686
  H        15.3604897526        1.4259678354        8.6754899750
  H         8.5289731278        1.6717085609        3.4250934999
  H         9.5210988966        0.6941564243        2.3316738342
  H         7.6374510758        0.5684954272        2.4097539117
  H         8.3928357236       -2.4771343113        4.4303410625
  H         9.4564832319       -2.3449015215        3.2066168323
  H         7.7014432182       -1.9639293547        2.8188587099
  H        12.8610553664       -2.1554752119        8.7404764129
      42
 i =      160, time =       80.000, E =      -138.0771055346
  C         8.8489561088       -0.4480255915        4.0163818588
  C         8.4058080001        0.9591845741        5.8745424613
  C         9.7832069759        1.3667079477        5.9373638681
  C        10.7503347091        0.5851386539        5.2300277313
  C         8.5465014016       -1.8625729098        3.5625993311
  C         8.5652960215        0.6429399288        2.9684708793
  C        10.3945407298        2.4061315039        6.8085340712
  C         9.6692676927        3.4437060186        7.4688647559
  C        10.4550915025        4.0691972048        8.5837040829
  C        11.2992520256        3.1812926788        9.1175486899
  C        11.0627104407        1.8340943960        8.6256987959
  C        13.3701717707        1.1628857518        7.9580625197
  C        14.3140529445        1.4638954506        9.0611140275
  C        11.3696822047       -0.5431517167        8.2845186100
  C        12.0941825018       -1.4926951394        9.2074239472
  N        11.9870983821        0.8072846760        8.5169876304
  O         7.4468308907        1.5906388569        6.4014132858
  O        11.9347422395        0.5840127492        5.3517611309
  O        10.2118024922       -0.3776229845        4.3308146972
  O         8.0708224383       -0.1939339381        5.2440516696
  O         8.3639438488        3.7633342209        7.3404020430
  H         7.7751671956        3.0055053111        6.7977785623
  H        11.3692380149        2.5758740218        6.5325560766
  H        10.3518515759        5.0557092646        8.9796491714
  H        12.0502624369        3.3436684125        9.8061642096
  H        10.0539008542        1.3701771165        8.9400854994
  H        12.5138833585       -0.9144372057       10.0292497083
  H        11.4549662323       -2.2436920814        9.6852430395
  H        10.2457989750       -0.4090581729        8.6091842992
  H        11.3623984572       -0.8688250159        7.2412494256
  H        13.6373960807        0.2868161613        7.4203878016
  H        14.1326666994        0.8735332266        9.9787644114
  H        13.3534188032        2.0240409658        7.3105660946
  H        14.2598212249        2.5046871414        9.5722938831
  H        15.3611475667        1.3808262161        8.8377303134
  H         8.4101423630        1.6188632088        3.4259981299
  H         9.2412770748        0.8835428811        2.0919310943
  H         7.6577082203        0.4152026174        2.4033842893
  H         8.2148336836       -2.4488358010        4.3603035337
  H         9.3966968584       -2.3995289414        3.1034684299
  H         7.7408147011       -1.8913880446        2.8585377094
  H        12.8352772871       -2.1114429181        8.6763585167
      42
 i =      180, time =       90.000, E =      -138.0864607496
  C         8.8633741823       -0.4475971115        4.0123597344
  C         8.4321591353        1.0112141035        5.8753933832
  C         9.7646268122        1.3745873911        5.9680314960
  C        10.6940753449        0.6105354454        5.1900606724
  C         8.5578567763       -1.8605951492        3.5987710030
  C         8.5031752366        0.5796339154        2.9890302316
  C        10.3675076188        2.3983831941        6.7834842246
  C         9.6400460992        3.4318875167        7.4446231880
  C        10.4243941184        4.0942504793        8.5233340170
  C        11.3020454936        3.1942084871        9.0816784465
  C        11.0471853542        1.8010210657        8.5858746845
  C        13.3068703032        1.1508753247        8.0167181323
  C        14.3325881201        1.5115277405        9.1065862419
  C        11.4193227390       -0.5143511736        8.3312767757
  C        12.1454581514       -1.4925412464        9.2469786201
  N        11.9805711168        0.8429956710        8.4941753125
  O         7.4641086570        1.5442995310        6.3837800550
  O        11.9298508355        0.5795371538        5.3632730210
  O        10.2594427058       -0.4131848973        4.3452764289
  O         8.0671829363       -0.2210223736        5.2036722073
  O         8.4020546744        3.7766206592        7.3596844221
  H         7.7766342429        3.0208972113        6.8165046456
  H        11.3610873864        2.6695108580        6.4777173864
  H        10.3733504727        5.1343003681        8.6733795989
  H        11.9497827384        3.4532936760        9.9445623123
  H        10.0466419489        1.4927066505        8.9909447793
  H        12.6690106791       -0.9567431068       10.0537215509
  H        11.4925165474       -2.2609901117        9.7685291287
  H        10.3087414989       -0.5499431110        8.6168317959
  H        11.4521392737       -0.7849910165        7.2568969901
  H        13.6788682942        0.3759173442        7.3919925170
  H        14.1362560598        0.8049998336        9.9312077725
  H        13.2171215534        1.9953346809        7.3058405117
  H        14.2903297545        2.5782115920        9.3544045277
  H        15.3028335977        1.2082126560        8.7926677355
  H         8.3030966491        1.5759688980        3.4611368463
  H         9.3595567897        0.6304539929        2.2689662834
  H         7.5494006256        0.2770925381        2.5071977912
  H         8.1059547611       -2.4282231787        4.3791824158
  H         9.4260971221       -2.2606912985        3.0860510434
  H         7.7911453697       -1.8018587241        2.8431308796
  H        12.9484704194       -1.9137981751        8.6715156624
      42
 i =      200, time =      100.000, E =      -138.0837528656
  C         8.8529488009       -0.4832800801        4.0380282983
  C         8.4237654830        0.9808388173        5.8806282088
  C         9.7956943089        1.3609608572        5.9587448451
  C        10.7406325453        0.5807620661        5.2120969327
  C         8.5374754740       -1.8713433401        3.5856551043
  C         8.4468788498        0.5477520824        2.9828914449
  C        10.3316725451        2.3912005814        6.8071558442
  C         9.6579861152        3.4493046869        7.4418600656
  C        10.4415500247        4.1206902237        8.4415858774
  C        11.2410989719        3.2327477938        9.0263545581
  C        10.9510132581        1.8511377242        8.5711335673
  C        13.3174381565        1.1781770245        7.9927806914
  C        14.3297412480        1.5020942311        9.1472093282
  C        11.4486281530       -0.5466221526        8.3816698544
  C        12.2464528862       -1.4786196173        9.2825347917
  N        11.9481959344        0.8717192676        8.5066081966
  O         7.4265759617        1.5593953998        6.4034032682
  O        11.9098339113        0.5869489054        5.3502680655
  O        10.3015318510       -0.4249156287        4.3627572749
  O         8.1037413872       -0.1868278298        5.1880519945
  O         8.3886405057        3.7741084502        7.3647165387
  H         7.8191019870        2.9713914271        6.8197145639
  H        11.4223476012        2.6797653288        6.4159187027
  H        10.2380990089        5.1697439257        8.5732896916
  H        12.1076067958        3.3657628414        9.8004577176
  H         9.9728314486        1.4376778904        8.8569974494
  H        12.7428019257       -1.0653782346       10.1755981495
  H        11.5023092636       -2.2930025076        9.5937126295
  H        10.3795420797       -0.5890545370        8.5162993180