42
Properties=species:S:1:pos:R:3 i=560 time=280.0 E=-138.0881824941 pbc="F F F"
C        8.87798449      -0.22527912       3.96992974
C        8.44004712       1.16695625       5.87670166
C        9.79586737       1.42828582       6.00462077
C       10.74830242       0.64812385       5.25509999
C        8.46622520      -1.59466190       3.55633278
C        8.75947369       0.84761383       2.90751464
C       10.35403970       2.44015248       6.84841314
C        9.66009554       3.39950615       7.63177298
C       10.55714940       3.87195049       8.65852536
C       11.33593538       2.89269635       9.14702294
C       10.93471655       1.50181301       8.63875795
C       13.31996817       1.03908624       7.89997592
C       14.31552348       1.33264600       8.98775800
C       11.53079264      -0.74200325       8.04659061
C       11.76304014      -1.76382504       9.13942025
N       11.98054892       0.61130135       8.43221337
O        7.52891798       1.66791641       6.55625451
O       11.97925480       0.63749939       5.42075615
O       10.22285084      -0.31063243       4.38174470
O        7.98014591       0.16240329       5.04589259
O        8.39738358       3.85033572       7.53362665
H        7.74833601       3.27004994       6.96564376
H       11.48010835       2.66873046       6.73190583
H       10.41902284       4.87276553       9.06164116
H       12.27593649       3.03873952       9.73054985
H        9.88721161       1.21297078       8.76542427
H       11.63774623      -1.30671094      10.12661523
H       11.08287642      -2.62431201       9.11378411
H       10.45460674      -0.77435648       7.85431637
H       11.93258338      -1.02567986       7.06852633
H       13.68997801       0.17504636       7.22795636
H       14.66459772       0.33274754       9.46858151
H       13.14594803       2.02364135       7.28545677
H       13.91421819       1.82496486       9.85962204
H       15.22957175       1.94666214       8.62092783
H        9.21268232       1.83324376       3.16039979
H        9.12464995       0.55133007       1.97220624
H        7.68816234       1.00649225       2.66392807
H        8.22358381      -2.20111263       4.53203965
H        9.09214247      -2.12177744       2.84825048
H        7.44476347      -1.57552814       3.09113243
H       12.71741870      -2.26562395       9.03247103
